# vtk DataFile Version 5.1
vtk output
ASCII
DATASET STRUCTURED_POINTS
DIMENSIONS 100 100 1
SPACING 1 1 1
ORIGIN 0 0 0
POINT_DATA 10000
FIELD FieldData 3
CellType 1 10000 char
0 0 0 0 0 0 0 0 0 
0 0 0 0 0 0 0 0 0 
0 0 0 0 0 0 0 0 0 
0 0 0 0 0 0 0 0 0 
0 0 0 0 0 0 0 0 0 
0 0 0 0 0 0 0 0 0 
0 0 0 0 0 0 0 0 0 
0 0 0 0 0 0 0 0 0 
0 0 0 0 0 0 0 0 0 
0 0 0 0 0 0 0 0 0 
0 0 0 0 0 0 0 0 0 
0 0 0 0 0 0 0 0 0 
0 0 0 0 0 0 0 0 0 
0 0 0 0 0 0 0 0 0 
0 0 0 0 0 0 0 0 0 
0 0 0 0 0 0 0 0 0 
0 0 0 0 0 0 0 0 0 
0 0 0 0 0 0 0 0 0 
0 0 0 0 0 0 0 0 0 
0 0 0 0 0 0 0 0 0 
0 0 0 0 0 0 0 0 0 
0 0 0 0 0 0 0 0 0 
0 0 0 0 0 0 0 0 0 
0 0 0 0 0 0 0 0 0 
0 0 0 0 0 0 0 0 0 
0 0 0 0 0 0 0 0 0 
0 0 0 0 0 0 0 0 0 
0 0 0 0 0 0 0 0 0 
0 0 0 0 0 0 0 0 0 
0 0 0 0 0 0 0 0 0 
0 0 0 0 0 0 0 0 0 
0 0 0 0 0 0 0 0 0 
0 0 0 0 0 0 0 0 0 
0 0 0 0 0 0 0 0 0 
0 0 0 0 0 0 0 0 0 
0 0 0 0 0 0 0 0 0 
0 0 0 0 0 0 0 0 0 
0 0 0 0 0 0 0 0 0 
0 0 0 0 0 0 0 0 0 
0 0 0 0 0 0 0 0 0 
0 0 0 0 0 0 0 0 0 
0 0 0 0 0 0 0 0 0 
0 0 0 0 0 0 0 0 0 
0 0 0 0 0 0 0 0 0 
0 0 0 0 0 0 0 0 0 
0 0 0 0 0 0 0 0 0 
0 0 0 0 0 0 0 0 0 
0 0 0 0 0 0 0 0 0 
0 0 0 0 0 0 0 0 0 
0 0 0 0 0 0 0 0 0 
0 0 0 0 0 0 0 0 0 
0 0 0 0 0 0 0 0 0 
0 0 0 0 0 0 0 0 0 
0 0 0 0 0 0 0 0 0 
0 0 0 0 0 0 0 0 0 
0 0 0 0 0 0 0 0 0 
0 0 0 0 0 0 0 0 0 
0 0 0 0 0 0 0 0 0 
0 0 0 0 0 0 0 0 0 
0 0 0 0 0 0 0 0 0 
0 0 0 0 0 0 0 0 0 
0 0 0 0 0 0 0 0 0 
0 0 0 0 0 0 0 0 0 
0 0 0 0 0 0 0 0 0 
0 0 0 0 0 0 0 0 0 
0 0 0 0 0 0 0 0 0 
0 0 0 0 0 0 0 0 0 
0 0 0 0 0 0 0 0 0 
0 0 0 0 0 0 0 0 0 
0 0 0 0 0 0 0 0 0 
0 0 0 0 0 0 0 0 0 
0 0 0 0 0 0 0 0 0 
0 0 0 0 0 0 0 0 0 
0 0 0 0 0 0 0 0 0 
0 0 0 0 0 0 0 0 0 
0 0 0 0 0 0 0 0 0 
0 0 0 0 0 0 0 0 0 
0 0 0 0 0 0 0 0 0 
0 0 0 0 0 0 0 0 0 
0 0 0 0 0 0 0 0 0 
0 0 0 0 0 0 0 0 0 
0 0 0 0 0 0 0 0 0 
0 0 0 0 0 0 0 0 0 
0 0 0 0 0 0 0 0 0 
0 0 0 0 0 0 0 0 0 
0 0 0 0 0 0 0 0 0 
0 0 0 0 0 0 0 0 0 
0 0 0 0 0 0 0 0 0 
0 0 0 0 0 0 0 0 0 
0 0 0 0 0 0 0 0 0 
0 0 0 0 0 0 0 0 0 
0 0 0 0 0 0 0 0 0 
0 0 0 0 0 0 0 0 0 
0 0 0 0 0 0 0 0 0 
0 0 0 0 0 0 0 0 0 
0 0 0 0 0 0 0 0 0 
0 0 0 0 0 0 0 0 0 
0 0 0 0 0 0 0 0 0 
0 0 0 0 0 0 0 0 0 
0 0 0 0 0 0 0 0 0 
0 0 0 0 0 0 0 0 0 
0 0 0 0 0 0 0 0 0 
0 0 0 0 0 0 0 0 0 
0 0 0 0 0 0 0 0 0 
0 0 0 0 0 0 0 0 0 
0 0 0 0 0 0 0 0 0 
0 0 0 0 0 0 0 0 0 
0 0 0 0 0 0 0 0 0 
0 0 0 0 0 0 0 0 0 
0 0 0 0 0 0 0 0 0 
0 0 0 0 0 0 0 0 0 
0 0 0 0 0 0 0 0 0 
0 0 0 0 0 0 0 0 0 
0 0 0 0 0 0 0 0 0 
0 0 0 0 0 0 0 0 0 
0 0 0 0 0 0 0 0 0 
0 0 0 0 0 0 0 0 0 
0 0 0 0 0 0 0 0 0 
0 0 0 0 0 0 0 0 0 
0 0 0 0 0 0 0 0 0 
0 0 0 0 0 0 0 0 0 
0 0 0 0 0 0 0 0 0 
0 0 0 0 0 0 0 0 0 
0 0 0 0 0 0 0 0 0 
0 0 0 0 0 0 0 0 0 
0 0 0 0 0 0 0 0 0 
0 0 0 0 0 0 0 0 0 
0 0 0 0 0 0 0 0 0 
0 0 0 0 0 0 0 0 0 
0 0 0 0 0 0 0 0 0 
0 0 0 0 0 0 0 0 0 
0 0 0 0 0 0 0 0 0 
0 0 0 0 0 0 0 0 0 
0 0 0 0 0 0 0 0 0 
0 0 0 0 0 0 0 0 0 
0 0 0 0 0 0 0 0 0 
0 0 0 0 0 0 0 0 0 
0 0 0 0 0 0 0 0 0 
0 0 0 0 0 0 0 0 0 
0 0 0 0 0 0 0 0 0 
0 0 0 0 0 0 0 0 0 
0 0 0 0 0 0 0 0 0 
0 0 0 0 0 0 0 0 0 
0 0 0 0 0 0 0 0 0 
0 0 0 0 0 0 0 0 0 
0 0 0 0 0 0 0 0 0 
0 0 0 0 0 0 0 0 0 
0 0 0 0 0 0 0 0 0 
0 0 0 0 0 0 0 0 0 
0 0 0 0 0 0 0 0 0 
0 0 0 0 0 0 0 0 0 
0 0 0 0 0 0 0 0 0 
0 0 0 0 0 0 0 0 0 
0 0 0 0 0 0 0 0 0 
0 0 0 0 0 0 0 0 0 
0 0 0 0 0 0 0 0 0 
0 0 0 0 0 0 0 0 0 
0 0 0 0 0 0 0 0 0 
0 0 0 0 0 0 0 0 0 
0 0 0 0 0 0 0 0 0 
0 0 0 0 0 0 0 0 0 
0 0 0 0 0 0 0 0 0 
0 0 0 0 0 0 0 0 0 
0 0 0 0 0 0 0 0 0 
0 0 0 0 0 0 0 0 0 
0 0 0 0 0 0 0 0 0 
0 0 0 0 0 0 0 0 0 
0 0 0 0 0 0 0 0 0 
0 0 0 0 0 0 0 0 0 
0 0 0 0 0 0 0 0 0 
0 1 1 1 1 1 1 1 1 
1 1 1 1 1 1 1 1 1 
1 2 2 2 2 2 1 1 1 
1 2 2 2 2 1 1 1 1 
1 1 1 1 1 1 1 1 0 
0 0 0 0 0 0 0 0 0 
0 0 0 0 0 0 0 0 0 
0 0 0 0 0 0 0 0 0 
0 0 0 0 0 0 0 0 0 
0 0 0 0 0 0 0 0 0 
0 0 0 0 0 0 0 0 0 
0 2 1 1 1 1 1 1 1 
1 1 1 1 1 1 1 1 1 
1 1 2 2 2 2 2 1 1 
1 1 2 2 2 2 1 1 1 
1 1 1 1 1 1 1 1 1 
1 0 0 0 0 0 0 0 0 
0 0 0 0 0 0 0 0 0 
0 0 0 0 0 0 0 0 0 
0 0 0 0 0 0 0 0 0 
0 0 0 0 0 0 0 0 0 
0 0 0 0 0 0 0 0 0 
0 2 2 1 1 1 1 1 1 
1 1 1 1 1 2 1 1 1 
1 1 1 2 2 2 2 2 1 
1 1 1 2 2 2 2 1 1 
1 1 1 1 1 1 1 1 1 
1 1 1 0 0 0 0 0 0 
0 0 0 0 0 0 0 0 0 
0 0 0 0 0 0 0 0 0 
0 0 0 0 0 0 0 0 0 
0 0 0 0 0 0 0 0 0 
0 0 0 0 0 0 0 0 0 
0 2 2 2 1 1 1 1 2 
2 1 1 1 1 2 2 2 1 
1 1 1 1 2 2 2 2 2 
1 1 1 1 2 2 2 2 1 
1 1 1 1 2 1 1 1 1 
1 1 1 1 1 0 0 0 0 
0 0 0 0 0 0 0 0 0 
0 0 0 0 0 0 0 0 0 
0 0 0 0 0 0 0 0 0 
0 0 0 0 0 0 0 0 0 
0 0 0 0 0 0 0 0 0 
0 2 2 2 2 2 1 1 1 
2 2 2 2 1 2 2 2 2 
2 1 1 1 2 2 2 2 2 
2 1 1 1 1 2 2 2 2 
2 1 1 1 1 2 1 1 1 
1 1 1 1 1 1 1 0 0 
0 0 0 0 0 0 0 0 0 
0 0 0 0 0 0 0 0 0 
0 0 0 0 0 0 0 0 0 
0 0 0 0 0 0 0 0 0 
0 0 0 0 0 0 0 0 0 
0 2 2 2 2 2 2 1 1 
1 2 2 2 2 1 2 2 2 
2 2 2 2 1 1 1 1 1 
2 2 1 1 1 1 2 2 2 
2 2 2 1 2 2 2 1 1 
1 1 1 1 1 1 1 1 1 
0 0 0 0 0 0 0 0 0 
0 0 0 0 0 0 0 0 0 
0 0 0 0 0 0 0 0 0 
0 0 0 0 0 0 0 0 0 
0 0 0 0 0 0 0 0 0 
0 2 2 2 2 2 2 2 1 
1 2 2 2 2 1 1 1 2 
2 2 2 2 2 1 1 1 1 
1 1 2 1 1 1 1 1 1 
1 1 1 1 1 2 2 2 1 
1 1 1 1 1 1 1 1 1 
1 1 0 0 0 0 0 0 0 
0 0 0 0 0 0 0 0 0 
0 0 0 0 0 0 0 0 0 
0 0 0 0 0 0 0 0 0 
0 0 0 0 0 0 0 0 0 
0 1 1 1 1 1 1 1 1 
2 2 2 2 2 1 1 1 1 
1 2 2 2 2 1 1 1 1 
1 1 1 2 2 2 2 2 2 
2 1 1 1 1 1 2 2 2 
1 1 1 1 1 1 1 1 1 
1 1 1 1 0 0 0 0 0 
0 0 0 0 0 0 0 0 0 
0 0 0 0 0 0 0 0 0 
0 0 0 0 0 0 0 0 0 
0 0 0 0 0 0 0 0 0 
0 2 1 1 1 1 1 1 1 
1 2 2 2 2 2 1 1 1 
1 1 2 2 2 2 1 1 1 
1 1 1 1 1 1 1 2 2 
2 2 1 1 1 1 1 2 2 
2 1 1 1 1 1 1 1 1 
1 1 1 1 1 1 0 0 0 
0 0 0 0 0 0 0 0 0 
0 0 0 0 0 0 0 0 0 
0 0 0 0 0 0 0 0 0 
0 0 0 0 0 0 0 0 0 
0 2 2 2 1 1 1 1 1 
1 1 2 2 2 2 2 1 1 
1 1 1 1 1 1 1 2 2 
2 2 2 2 2 1 1 1 2 
2 2 2 2 1 1 1 1 2 
2 2 2 2 2 1 1 1 1 
1 1 1 1 1 1 1 1 0 
0 0 0 0 0 0 0 0 0 
0 0 0 0 0 0 0 0 0 
0 0 0 0 0 0 0 0 0 
0 0 0 0 0 0 0 0 0 
0 2 2 2 2 1 1 1 2 
2 2 2 1 1 1 1 1 1 
1 1 1 2 1 1 1 1 2 
2 2 2 2 2 2 1 1 1 
1 2 2 2 2 2 1 1 1 
2 2 2 2 2 2 1 1 1 
1 1 1 1 1 1 1 1 1 
1 0 0 0 0 0 0 0 0 
0 0 0 0 0 0 0 0 0 
0 0 0 0 0 0 0 0 0 
0 0 0 0 0 0 0 0 0 
0 2 2 2 2 2 1 1 2 
2 2 2 2 1 1 1 1 1 
2 2 2 2 2 1 1 1 1 
2 2 2 2 2 2 2 1 1 
1 1 1 2 2 2 2 2 1 
1 2 2 2 2 2 2 1 1 
1 1 2 2 2 2 2 1 1 
1 1 1 0 0 0 0 0 0 
0 0 0 0 0 0 0 0 0 
0 0 0 0 0 0 0 0 0 
0 0 0 0 0 0 0 0 0 
0 2 2 2 2 2 2 1 2 
2 2 2 2 2 1 1 1 1 
1 2 2 2 2 2 1 1 1 
1 2 2 2 2 2 2 2 1 
1 1 1 1 1 1 1 1 1 
1 1 2 2 1 1 1 1 1 
1 1 2 2 2 2 2 2 1 
1 1 1 1 1 0 0 0 0 
0 0 0 0 0 0 0 0 0 
0 0 0 0 0 0 0 0 0 
0 0 0 0 0 0 0 0 0 
0 0 2 2 2 2 2 2 2 
2 2 2 2 2 1 1 1 1 
1 1 2 2 2 2 2 1 1 
1 1 1 1 1 1 1 1 2 
1 1 1 1 2 2 2 1 1 
1 1 1 1 1 1 1 1 1 
2 2 2 2 2 2 2 2 2 
1 1 1 1 1 2 1 0 0 
0 0 0 0 0 0 0 0 0 
0 0 0 0 0 0 0 0 0 
0 0 0 0 0 0 0 0 0 
0 0 0 1 1 1 1 1 1 
1 2 2 2 2 1 1 1 1 
1 1 1 2 2 2 2 2 1 
1 1 2 2 1 1 1 1 1 
1 1 1 1 2 2 2 2 1 
1 1 1 1 1 1 1 1 1 
1 2 2 2 2 2 1 1 1 
1 1 1 1 1 2 2 1 1 
0 0 0 0 0 0 0 0 0 
0 0 0 0 0 0 0 0 0 
0 0 0 0 0 0 0 0 0 
0 0 0 2 2 2 1 1 1 
1 1 1 1 1 2 2 2 2 
2 2 2 1 2 2 2 2 2 
1 1 2 2 2 1 1 1 1 
1 2 2 1 2 2 2 2 2 
2 1 1 1 1 2 1 1 1 
1 1 2 2 2 2 1 1 1 
1 1 2 2 2 2 2 2 1 
1 1 0 0 0 0 0 0 0 
0 0 0 0 0 0 0 0 0 
0 0 0 0 0 0 0 0 0 
0 0 0 2 2 2 2 2 1 
1 1 1 1 1 1 2 2 2 
2 2 2 1 1 1 1 2 2 
2 1 2 2 2 2 2 1 1 
1 1 2 2 2 2 2 2 2 
2 2 1 1 1 2 2 1 1 
1 1 1 2 2 2 2 1 1 
1 1 1 2 2 2 2 2 2 
1 1 1 1 0 0 0 0 0 
0 0 0 0 0 0 0 0 0 
0 0 0 0 0 0 0 0 0 
0 0 0 2 2 2 2 2 2 
2 2 1 1 1 1 1 2 2 
2 2 2 2 1 1 1 1 1 
2 2 1 2 2 2 2 2 2 
1 1 2 2 2 2 1 2 2 
2 2 2 1 2 2 2 2 2 
2 2 2 1 1 1 1 1 1 
1 1 1 1 2 2 2 2 2 
1 1 1 1 1 0 0 0 0 
0 0 0 0 0 0 0 0 0 
0 0 0 0 0 0 0 0 0 
0 0 0 2 2 2 2 2 2 
2 2 2 2 1 1 1 1 2 
2 2 2 2 2 1 1 1 1 
1 2 1 1 1 2 2 2 2 
2 1 2 2 2 2 2 1 1 
1 1 1 1 2 2 2 2 2 
2 2 2 1 1 1 1 1 1 
1 1 1 1 1 2 2 2 2 
2 1 1 1 1 1 0 0 0 
0 0 0 0 0 0 0 0 0 
0 0 0 0 0 0 0 0 0 
0 0 0 0 2 2 2 2 2 
2 1 1 1 1 1 2 2 2 
1 1 1 1 1 2 1 1 1 
1 1 1 1 1 1 1 2 2 
2 2 1 2 2 2 2 2 1 
1 1 1 1 1 2 2 2 2 
2 2 2 2 1 1 1 1 1 
1 1 1 1 1 1 2 2 2 
2 2 1 1 1 1 1 0 0 
0 0 0 0 0 0 0 0 0 
0 0 0 0 0 0 0 0 0 
0 0 0 0 0 1 1 1 1 
1 1 1 1 1 1 1 2 2 
2 1 1 1 1 1 1 1 1 
1 1 2 1 1 1 1 1 2 
1 1 1 1 1 1 2 2 2 
1 1 1 1 1 1 2 1 1 
1 1 1 1 2 1 1 1 1 
1 2 2 2 2 2 1 1 1 
1 1 1 2 2 2 2 2 0 
0 0 0 0 0 0 0 0 0 
0 0 0 0 0 0 0 0 0 
0 0 0 0 0 0 1 1 1 
1 2 2 1 1 1 1 1 2 
2 2 2 1 1 1 1 1 2 
2 2 2 2 1 1 1 1 2 
2 2 2 1 1 1 1 1 1 
2 1 1 1 1 1 1 1 1 
1 1 1 1 1 1 1 1 1 
1 2 2 2 2 2 2 1 1 
1 1 1 2 2 2 2 2 2 
0 0 0 0 0 0 0 0 0 
0 0 0 0 0 0 0 0 0 
0 0 0 0 0 0 0 1 1 
1 1 2 2 2 1 1 1 1 
2 2 2 2 1 1 1 1 1 
2 2 2 2 2 1 1 1 1 
2 2 2 2 2 1 1 1 1 
1 2 1 1 1 1 1 2 2 
1 1 1 1 1 1 1 2 2 
2 2 2 2 2 2 2 2 1 
1 1 1 1 2 2 2 2 2 
2 0 0 0 0 0 0 0 0 
0 0 0 0 0 0 0 0 0 
0 0 0 0 0 0 0 0 1 
1 1 1 2 2 2 2 1 1 
1 2 2 2 2 1 1 1 1 
2 2 2 2 2 2 1 1 1 
1 2 2 2 2 2 2 1 1 
1 2 2 2 2 2 1 2 2 
2 2 1 1 1 1 1 1 2 
2 2 2 2 2 2 2 2 2 
1 1 1 1 1 2 2 2 2 
2 2 0 0 0 0 0 0 0 
0 0 0 0 0 0 0 0 0 
0 0 0 0 0 0 0 0 0 
1 1 1 1 2 2 2 2 2 
1 1 2 2 2 2 2 2 1 
2 2 2 2 2 2 2 1 1 
1 1 2 2 2 2 2 2 2 
2 2 2 2 2 2 2 1 2 
2 2 2 2 2 2 2 2 1 
1 1 1 1 2 2 2 1 1 
1 1 1 1 1 1 2 2 2 
1 1 1 0 0 0 0 0 0 
0 0 0 0 0 0 0 0 0 
0 0 0 0 0 0 0 0 0 
0 1 1 1 1 2 2 2 2 
2 2 1 2 2 2 1 1 1 
1 2 2 1 1 1 1 1 2 
2 2 2 1 1 1 1 1 1 
1 1 2 2 2 2 2 1 1 
1 2 2 2 2 2 2 2 2 
1 1 1 1 1 1 1 1 1 
1 1 1 2 2 2 2 1 1 
1 1 1 1 0 0 0 0 0 
0 0 0 0 0 0 0 0 0 
0 0 0 0 0 0 0 0 0 
0 0 1 1 1 1 2 2 2 
2 2 2 1 2 2 1 1 1 
1 1 1 1 1 1 1 1 1 
2 2 2 2 1 1 1 1 1 
1 1 1 2 2 2 2 2 1 
1 1 1 2 2 2 2 2 2 
2 1 1 1 1 1 1 1 1 
1 1 1 1 2 2 2 2 1 
1 1 1 1 1 0 0 0 0 
0 0 0 0 0 0 0 0 0 
0 0 0 0 0 0 0 0 0 
0 0 0 2 2 2 2 2 1 
1 1 1 1 1 1 1 1 1 
1 1 1 1 2 1 1 1 1 
1 2 2 2 2 2 1 1 1 
1 1 1 1 2 2 2 2 2 
1 1 1 1 1 1 1 1 1 
1 1 1 1 1 1 1 1 1 
1 1 1 1 1 2 2 2 2 
2 1 1 1 1 1 0 0 0 
0 0 0 0 0 0 0 0 0 
0 0 0 0 0 0 0 0 0 
0 0 0 0 2 2 2 2 2 
1 1 1 1 1 1 1 2 1 
1 1 1 1 1 2 2 1 1 
1 1 2 2 2 2 2 1 1 
2 2 2 2 2 1 1 1 1 
1 1 1 1 1 2 2 1 1 
1 1 1 2 2 2 2 1 1 
2 1 1 1 1 1 2 2 2 
2 2 2 1 1 1 1 0 0 
0 0 0 0 0 0 0 0 0 
0 0 0 0 0 0 0 0 0 
0 0 0 0 0 2 2 2 2 
2 1 1 1 1 1 1 1 2 
2 2 2 1 1 2 2 2 1 
1 1 1 1 2 2 2 2 2 
2 2 2 2 2 2 1 1 1 
2 2 1 1 1 1 2 2 2 
1 1 1 1 2 2 2 2 2 
1 2 2 2 2 2 2 1 2 
2 2 2 2 2 2 2 1 0 
0 0 0 0 0 0 0 0 0 
0 0 0 0 0 0 0 0 0 
0 0 0 0 0 0 2 2 2 
2 2 1 1 1 1 1 1 1 
2 2 2 2 2 1 2 2 2 
2 2 2 2 2 1 1 1 1 
1 1 2 2 2 2 2 1 1 
1 2 2 2 1 1 1 2 2 
2 1 1 1 1 2 2 2 2 
2 1 2 2 2 2 2 2 1 
1 1 1 2 2 2 1 1 1 
0 0 0 0 0 0 0 0 0 
0 0 0 0 0 0 0 0 0 
0 0 0 0 0 0 0 2 2 
2 2 2 2 2 2 2 2 2 
1 2 2 2 2 2 1 2 2 
2 2 2 2 2 2 1 1 1 
1 1 1 1 2 2 2 2 1 
1 1 2 2 2 2 1 1 2 
2 2 2 1 1 1 2 2 2 
2 1 1 1 2 2 2 2 2 
1 1 1 1 1 1 1 1 1 
1 0 0 0 0 0 0 0 0 
0 0 0 0 0 0 0 0 0 
0 0 0 0 0 0 0 0 1 
1 1 1 1 1 2 2 2 2 
2 1 2 2 2 2 2 1 1 
1 2 2 2 2 2 2 1 1 
1 1 1 1 1 2 2 2 1 
1 1 1 2 2 2 2 2 1 
2 2 2 2 2 1 1 2 2 
2 1 1 1 1 2 2 2 2 
2 1 1 1 1 1 1 1 1 
1 1 0 0 0 0 0 0 0 
0 0 0 0 0 0 0 0 0 
0 0 0 0 0 0 0 0 0 
1 1 1 1 1 1 2 2 2 
2 2 1 2 2 2 2 1 1 
1 1 1 1 1 1 1 1 2 
2 2 2 1 1 1 1 2 1 
1 1 1 1 2 2 2 2 2 
2 2 2 2 2 2 2 2 2 
2 1 1 1 1 1 2 2 2 
2 2 1 1 1 1 1 1 1 
1 1 1 0 0 0 0 0 0 
0 0 0 0 0 0 0 0 0 
0 0 0 0 0 0 0 0 0 
0 1 1 1 1 1 1 1 2 
2 2 2 1 1 2 2 1 1 
1 1 1 2 2 1 1 1 1 
2 2 2 2 2 1 1 1 2 
1 1 1 1 1 2 2 2 2 
2 2 1 1 1 1 1 1 1 
2 1 1 1 1 1 2 1 1 
1 1 2 2 1 1 1 2 2 
1 1 1 1 0 0 0 0 0 
0 0 0 0 0 0 0 0 0 
0 0 0 0 0 0 0 0 0 
0 0 1 1 1 1 1 1 1 
1 2 2 1 1 1 1 2 1 
1 1 1 2 2 2 2 1 1 
1 2 2 2 2 2 2 1 2 
2 2 2 2 2 1 1 1 1 
1 1 2 1 1 1 1 1 1 
1 2 1 1 1 2 2 2 2 
1 1 1 1 1 1 2 2 2 
2 2 2 1 1 0 0 0 0 
0 0 0 0 0 0 0 0 0 
0 0 0 0 0 0 0 0 0 
0 0 0 2 2 2 1 1 1 
2 2 2 1 1 1 1 1 2 
1 1 1 1 2 2 2 2 1 
1 1 1 2 2 2 2 2 1 
2 2 2 2 2 2 1 1 1 
1 1 1 1 1 1 1 1 1 
1 2 2 2 1 2 2 2 2 
2 1 1 1 1 1 1 1 2 
2 2 2 2 1 1 0 0 0 
0 0 0 0 0 0 0 0 0 
0 0 0 0 0 0 0 0 0 
0 0 0 0 2 2 2 2 1 
2 2 2 2 1 1 1 1 1 
2 1 1 1 1 2 2 2 2 
1 1 1 1 2 2 1 1 1 
1 2 2 2 2 2 2 1 1 
1 1 1 1 2 2 1 1 1 
1 2 2 2 2 1 2 2 2 
2 2 1 1 1 1 1 1 1 
1 2 2 2 2 1 1 0 0 
0 0 0 0 0 0 0 0 0 
0 0 0 0 0 0 0 0 0 
0 0 0 0 0 2 2 2 2 
1 2 2 2 2 1 1 1 1 
1 2 2 2 2 1 2 2 2 
2 2 1 1 1 2 1 1 1 
1 1 2 2 2 2 2 2 1 
1 1 1 2 2 2 2 2 1 
1 2 2 2 2 2 1 1 2 
2 2 2 1 1 1 1 1 1 
1 1 2 2 2 1 1 1 0 
0 0 0 0 0 0 0 0 0 
0 0 0 0 0 0 0 0 0 
0 0 0 0 0 0 2 2 2 
2 2 2 2 2 2 1 1 1 
1 2 2 2 2 2 1 2 2 
2 2 2 1 1 1 2 1 1 
1 1 1 2 1 1 1 1 1 
1 2 2 2 2 2 2 2 2 
2 1 2 2 2 2 2 1 1 
1 2 2 2 1 1 1 1 1 
1 1 1 2 2 2 1 1 1 
0 0 0 0 0 0 0 0 0 
0 0 0 0 0 0 0 0 0 
0 0 0 0 0 0 0 2 2 
2 1 1 2 2 2 2 1 1 
1 2 2 2 2 2 2 1 1 
1 1 1 1 2 2 2 2 1 
1 1 1 1 2 1 1 1 1 
1 1 2 2 2 2 2 2 2 
2 2 1 2 2 2 2 2 1 
1 1 1 1 1 2 2 2 2 
2 1 1 1 2 2 2 1 1 
1 0 0 0 0 0 0 0 0 
0 0 0 0 0 0 0 0 0 
0 0 0 0 0 0 0 0 2 
2 2 1 1 1 1 1 2 2 
2 1 1 1 2 2 2 2 1 
1 1 1 1 1 2 2 2 2 
1 1 1 1 2 2 2 1 1 
1 1 1 1 1 1 1 1 1 
2 2 1 1 1 2 2 2 2 
1 1 1 1 1 1 2 2 2 
2 2 2 1 2 2 2 2 1 
1 1 0 0 0 0 0 0 0 
0 0 0 0 0 0 0 0 0 
0 0 0 0 0 0 0 0 0 
2 1 1 1 1 1 1 2 2 
2 2 1 1 1 1 2 2 2 
1 1 1 1 1 1 2 2 2 
2 2 1 1 2 2 2 2 1 
1 1 1 2 2 1 1 1 1 
1 1 1 1 1 1 1 1 1 
1 1 1 1 1 1 1 2 2 
2 2 2 2 1 1 1 1 2 
1 1 1 0 0 0 0 0 0 
0 0 0 0 0 0 0 0 0 
0 0 0 0 0 0 0 0 0 
0 1 1 1 1 1 1 1 2 
2 2 2 1 1 1 1 2 2 
2 1 1 1 1 1 1 2 2 
2 2 2 1 2 2 2 2 2 
1 2 2 2 2 2 1 1 1 
1 1 2 2 1 1 1 1 1 
1 2 2 2 2 2 2 1 1 
1 2 2 2 2 1 1 1 1 
1 1 1 1 0 0 0 0 0 
0 0 0 0 0 0 0 0 0 
0 0 0 0 0 0 0 0 0 
0 0 1 1 1 1 1 1 1 
2 2 2 2 1 1 1 1 2 
1 1 1 2 2 2 1 1 2 
2 2 2 2 1 2 2 2 2 
2 1 2 2 2 2 2 1 1 
1 1 2 2 2 2 1 1 1 
1 1 2 2 2 2 2 2 1 
1 1 1 2 2 2 1 1 1 
1 1 1 1 1 0 0 0 0 
0 0 0 0 0 0 0 0 0 
0 0 0 0 0 0 0 0 0 
0 0 0 2 2 2 2 2 2 
1 2 2 2 2 1 1 1 1 
1 1 1 1 2 2 2 2 2 
1 1 1 1 1 1 2 2 2 
1 1 1 1 2 2 2 2 2 
1 2 2 2 2 2 2 1 1 
1 1 1 2 2 2 2 2 2 
1 1 1 1 2 2 2 2 1 
1 1 1 1 1 1 0 0 0 
0 0 0 0 0 0 0 0 0 
0 0 0 0 0 0 0 0 0 
0 0 0 0 2 2 2 2 2 
1 1 1 2 2 2 1 1 1 
2 1 1 1 1 2 2 2 2 
2 1 1 1 1 1 1 2 2 
1 1 1 1 1 2 2 2 2 
2 1 2 2 2 2 2 2 2 
2 2 2 2 1 2 2 2 2 
2 1 1 1 1 2 2 1 1 
1 1 1 1 1 1 1 0 0 
0 0 0 0 0 0 0 0 0 
0 0 0 0 0 0 0 0 0 
0 0 0 0 0 2 2 2 2 
1 1 1 1 2 2 2 1 2 
2 2 1 1 1 1 2 2 2 
2 2 1 1 1 1 1 1 1 
1 1 1 1 1 1 2 2 1 
1 1 1 1 2 2 2 2 1 
2 2 2 2 2 1 1 1 2 
2 2 1 1 1 1 2 1 1 
1 1 1 1 1 1 1 1 0 
0 0 0 0 0 0 0 0 0 
0 0 0 0 0 0 0 0 0 
0 0 0 0 0 0 2 2 2 
2 1 1 1 1 2 2 2 1 
2 2 2 1 1 1 1 2 2 
2 2 2 1 1 1 1 1 1 
2 2 1 1 1 1 1 1 1 
1 1 1 1 1 1 2 2 1 
1 2 2 2 2 2 1 1 1 
1 2 2 1 1 1 1 1 1 
1 1 1 1 1 1 1 1 1 
0 0 0 0 0 0 0 0 0 
0 0 0 0 0 0 0 0 0 
0 0 0 0 0 0 0 2 2 
2 2 1 1 1 1 2 1 1 
1 1 2 2 2 1 1 1 2 
2 2 2 2 1 1 1 1 1 
1 2 2 2 2 2 2 2 2 
2 1 1 1 1 1 1 1 1 
1 1 1 1 2 2 2 1 1 
1 1 1 1 1 1 1 2 2 
1 1 1 1 1 1 1 1 1 
1 0 0 0 0 0 0 0 0 
0 0 0 0 0 0 0 0 0 
0 0 0 0 0 0 0 0 2 
2 2 2 1 1 1 1 1 1 
1 1 1 2 2 2 2 2 1 
1 1 1 1 1 2 2 2 2 
2 1 2 2 2 2 2 2 2 
2 2 1 1 1 1 1 1 2 
2 1 1 1 1 2 2 2 1 
1 1 1 1 2 2 2 2 2 
2 2 1 1 1 2 2 1 1 
1 1 0 0 0 0 0 0 0 
0 0 0 0 0 0 0 0 0 
0 0 0 0 0 0 0 0 0 
1 1 1 1 1 1 1 1 1 
1 1 1 1 2 2 2 2 1 
1 1 1 1 1 1 2 2 2 
2 1 1 1 1 2 2 2 2 
2 1 1 1 2 2 2 2 2 
2 2 1 1 1 1 1 2 2 
1 1 1 1 1 2 2 2 2 
2 2 2 1 1 1 2 2 2 
2 2 2 0 0 0 0 0 0 
0 0 0 0 0 0 0 0 0 
0 0 0 0 0 0 0 0 0 
0 1 1 1 1 2 2 2 2 
2 1 1 1 1 2 2 2 2 
1 1 1 1 1 1 1 2 2 
2 2 1 1 1 1 1 2 2 
1 1 1 1 1 2 2 2 2 
2 2 2 2 1 1 1 1 1 
1 1 1 1 1 1 2 2 2 
2 2 2 1 1 1 1 2 2 
2 2 2 1 0 0 0 0 0 
0 0 0 0 0 0 0 0 0 
0 0 0 0 0 0 0 0 0 
0 0 1 1 1 1 2 2 2 
2 2 1 1 1 2 2 2 2 
2 1 1 1 1 1 1 1 2 
2 2 2 1 1 1 1 1 1 
1 1 1 1 1 1 1 2 2 
2 2 2 2 2 1 1 1 1 
2 2 2 2 2 2 1 2 2 
2 2 2 2 1 1 1 1 2 
2 2 1 1 1 0 0 0 0 
0 0 0 0 0 0 0 0 0 
0 0 0 0 0 0 0 0 0 
0 0 0 1 1 1 1 2 2 
2 2 2 2 2 1 1 1 1 
1 1 1 1 1 1 1 1 2 
2 2 2 2 1 1 1 1 1 
2 2 1 1 1 1 1 1 1 
1 1 1 1 1 1 1 2 2 
2 2 2 2 2 2 1 1 1 
2 2 2 2 2 1 1 1 1 
2 2 1 1 1 1 0 0 0 
0 0 0 0 0 0 0 0 0 
0 0 0 0 0 0 0 0 0 
0 0 0 0 1 1 1 1 2 
2 2 2 2 2 1 1 1 1 
1 1 2 2 2 2 2 2 1 
2 2 2 2 2 1 1 1 1 
2 2 2 1 2 2 2 2 2 
2 1 1 1 1 1 1 1 2 
2 2 2 2 2 2 1 1 1 
1 2 2 1 1 1 1 1 1 
1 2 2 1 1 1 1 0 0 
0 0 0 0 0 0 0 0 0 
0 0 0 0 0 0 0 0 0 
0 0 0 0 0 1 1 1 2 
2 2 2 2 2 1 1 1 1 
1 1 2 2 2 2 2 2 2 
1 1 1 1 1 1 2 2 2 
2 2 2 2 1 2 2 2 2 
2 2 1 1 1 1 1 1 1 
2 2 2 2 2 2 2 1 1 
1 1 1 1 1 1 1 1 1 
1 1 2 2 1 1 1 1 0 
0 0 0 0 0 0 0 0 0 
0 0 0 0 0 0 0 0 0 
0 0 0 0 0 0 1 1 1 
1 1 1 1 1 2 1 1 1 
1 1 1 2 2 2 2 2 2 
2 1 1 1 1 1 1 2 2 
2 2 2 2 1 1 1 1 2 
2 2 2 1 1 1 2 2 2 
2 1 1 1 1 2 2 1 1 
1 1 1 1 1 1 1 1 1 
1 2 2 2 2 1 1 1 1 
0 0 0 0 0 0 0 0 0 
0 0 0 0 0 0 0 0 0 
0 0 0 0 0 0 0 0 1 
1 1 1 1 1 1 1 1 1 
1 1 1 1 2 2 2 2 2 
2 2 1 1 1 1 1 1 2 
2 2 2 2 2 1 1 1 1 
1 2 2 2 2 1 2 2 2 
2 2 1 1 1 1 1 1 1 
1 1 1 1 2 2 1 1 1 
1 1 2 2 2 2 1 1 1 
1 0 0 0 0 0 0 0 0 
0 0 0 0 0 0 0 0 0 
0 0 0 0 0 0 0 0 0 
1 1 1 1 1 1 1 2 2 
2 2 2 2 2 1 1 1 1 
1 1 1 1 1 1 1 1 1 
2 2 2 2 2 1 1 1 1 
1 1 2 2 2 2 1 2 2 
2 2 2 1 1 1 1 1 2 
2 2 2 2 2 2 2 1 1 
1 1 1 1 1 1 1 1 1 
1 0 0 0 0 0 0 0 0 
0 0 0 0 0 0 0 0 0 
0 0 0 0 0 0 0 0 0 
0 0 1 1 1 1 1 1 2 
2 2 2 2 2 2 1 1 1 
1 1 1 2 2 2 2 2 2 
1 1 1 1 1 1 1 1 1 
1 1 1 1 1 1 1 1 1 
2 2 2 2 1 1 1 1 1 
2 2 2 2 2 2 2 2 1 
1 1 1 2 1 1 1 1 1 
1 0 0 0 0 0 0 0 0 
0 0 0 0 0 0 0 0 0 
0 0 0 0 0 0 0 0 0 
0 0 0 0 1 1 1 1 1 
1 1 1 1 1 1 2 1 1 
1 1 1 1 2 2 2 2 2 
2 1 1 1 1 1 2 2 2 
2 2 2 2 2 1 1 1 1 
1 1 2 2 2 1 1 1 1 
2 2 2 2 2 2 1 1 1 
1 2 2 2 2 1 1 1 1 
1 0 0 0 0 0 0 0 0 
0 0 0 0 0 0 0 0 0 
0 0 0 0 0 0 0 0 0 
0 0 0 0 0 0 1 1 1 
1 1 1 1 1 1 1 2 1 
1 1 1 1 2 2 2 2 2 
2 2 1 1 1 1 1 2 2 
2 2 2 2 2 2 1 1 1 
1 1 1 1 2 1 1 1 1 
2 2 2 2 2 2 1 1 1 
1 1 2 2 2 2 1 1 1 
1 0 0 0 0 0 0 0 0 
0 0 0 0 0 0 0 0 0 
0 0 0 0 0 0 0 0 0 
0 0 0 0 0 0 0 0 1 
1 1 1 1 1 1 1 1 2 
2 2 1 2 2 2 2 2 2 
1 1 1 1 1 1 1 1 2 
2 2 2 2 2 2 2 2 1 
1 1 1 1 1 2 2 2 2 
1 1 1 1 1 1 1 1 1 
1 1 1 2 2 2 2 1 1 
1 0 0 0 0 0 0 0 0 
0 0 0 0 0 0 0 0 0 
0 0 0 0 0 0 0 0 0 
0 0 0 0 0 0 0 0 0 
0 1 1 1 1 1 1 1 1 
2 2 2 1 1 1 2 2 2 
1 1 1 1 1 1 1 1 2 
2 2 2 2 2 1 1 1 1 
1 1 1 1 1 2 2 2 2 
2 1 1 1 1 1 2 2 1 
1 1 1 1 2 2 2 2 1 
1 0 0 0 0 0 0 0 0 
0 0 0 0 0 0 0 0 0 
0 0 0 0 0 0 0 0 0 
0 0 0 0 0 0 0 0 0 
0 0 0 1 1 1 1 1 1 
1 2 2 2 1 1 1 1 2 
1 1 1 1 1 1 2 2 1 
1 1 1 1 1 1 1 1 1 
1 1 1 2 2 2 2 2 2 
2 2 1 1 1 1 1 2 2 
2 1 1 1 1 2 2 2 2 
1 0 0 0 0 0 0 0 0 
0 0 0 0 0 0 0 0 0 
0 0 0 0 0 0 0 0 0 
0 0 0 0 0 0 0 0 0 
0 0 0 0 0 1 1 1 1 
1 1 2 2 2 1 1 1 1 
1 1 1 1 1 1 1 2 2 
1 1 1 1 1 2 2 1 1 
1 1 1 1 2 2 2 2 2 
2 2 2 1 1 1 1 2 2 
2 2 2 1 1 2 2 2 2 
2 0 0 0 0 0 0 0 0 
0 0 0 0 0 0 0 0 0 
0 0 0 0 0 0 0 0 0 
0 0 0 0 0 0 0 0 0 
0 0 0 0 0 0 0 1 1 
1 1 1 2 2 2 1 1 1 
1 1 2 2 2 2 2 2 2 
2 1 1 1 1 1 2 2 2 
1 1 1 1 1 2 2 2 2 
2 2 2 2 1 1 1 2 2 
2 2 2 2 1 1 2 2 2 
2 0 0 0 0 0 0 0 0 
0 0 0 0 0 0 0 0 0 
0 0 0 0 0 0 0 0 0 
0 0 0 0 0 0 0 0 0 
0 0 0 0 0 0 0 0 0 
1 1 1 1 1 1 1 1 1 
1 1 1 2 2 2 2 2 2 
2 2 1 1 1 1 2 2 2 
2 2 2 2 2 1 1 1 1 
1 1 1 1 1 1 2 2 2 
2 2 2 2 1 1 1 1 1 
2 0 0 0 0 0 0 0 0 
0 0 0 0 0 0 0 0 0 
0 0 0 0 0 0 0 0 0 
0 0 0 0 0 0 0 0 0 
0 0 0 0 0 0 0 0 0 
0 0 1 1 1 1 1 1 1 
1 1 1 1 2 2 2 2 2 
2 2 2 2 1 2 2 2 2 
2 2 2 2 2 1 1 1 1 
1 2 2 1 1 1 1 1 2 
2 2 1 1 1 1 1 1 1 
1 0 0 0 0 0 0 0 0 
0 0 0 0 0 0 0 0 0 
0 0 0 0 0 0 0 0 0 
0 0 0 0 0 0 0 0 0 
0 0 0 0 0 0 0 0 0 
0 0 0 0 1 1 1 1 1 
1 1 1 1 1 1 2 2 1 
1 1 1 2 2 1 1 1 1 
1 1 1 1 1 1 1 1 1 
1 2 2 2 2 1 1 1 1 
1 1 1 1 1 1 1 1 1 
1 0 0 0 0 0 0 0 0 
0 0 0 0 0 0 0 0 0 
0 0 0 0 0 0 0 0 0 
0 0 0 0 0 0 0 0 0 
0 0 0 0 0 0 0 0 0 
0 0 0 0 0 0 1 1 1 
1 1 1 1 1 1 1 1 1 
1 1 1 1 1 1 1 1 1 
1 1 1 2 2 2 2 1 1 
1 1 2 2 2 2 2 1 1 
1 1 2 2 2 2 2 2 1 
1 0 0 0 0 0 0 0 0 
0 0 0 0 0 0 0 0 0 
0 0 0 0 0 0 0 0 0 
0 0 0 0 0 0 0 0 0 
0 0 0 0 0 0 0 0 0 
0 0 0 0 0 0 0 0 1 
1 1 1 1 1 1 1 1 1 
1 1 1 1 1 1 1 1 1 
1 1 1 2 2 2 2 2 2 
1 1 1 2 2 2 2 2 1 
1 1 2 2 2 2 2 2 2 
2 0 0 0 0 0 0 0 0 
0 0 0 0 0 0 0 0 0 
0 0 0 0 0 0 0 0 0 
0 0 0 0 0 0 0 0 0 
0 0 0 0 0 0 0 0 0 
0 0 0 0 0 0 0 0 0 
0 1 1 1 1 1 1 1 1 
1 1 1 1 1 1 1 1 1 
1 1 1 2 2 2 2 2 2 
2 1 1 1 2 2 2 2 2 
1 1 1 2 2 2 2 2 2 
2 0 0 0 0 0 0 0 0 
0 0 0 0 0 0 0 0 0 
0 0 0 0 0 0 0 0 0 
0 0 0 0 0 0 0 0 0 
0 0 0 0 0 0 0 0 0 
0 0 0 0 0 0 0 0 0 
0 0 0 0 0 1 1 1 1 
1 1 1 1 1 1 1 1 1 
1 1 1 1 2 2 2 2 2 
2 2 1 1 1 2 2 2 2 
2 1 1 1 2 2 2 2 2 
2 0 0 0 0 0 0 0 0 
0 0 0 0 0 0 0 0 0 
0 0 0 0 0 0 0 0 0 
0 0 0 0 0 0 0 0 0 
0 0 0 0 0 0 0 0 0 
0 0 0 0 0 0 0 0 0 
0 0 0 0 0 0 0 0 0 
0 0 0 0 0 0 0 0 0 
0 0 0 0 0 0 0 0 0 
0 0 0 0 0 0 0 0 0 
0 0 0 0 0 0 0 0 0 
0 0 0 0 0 0 0 0 0 
0 0 0 0 0 0 0 0 0 
0 0 0 0 0 0 0 0 0 
0 0 0 0 0 0 0 0 0 
0 0 0 0 0 0 0 0 0 
0 0 0 0 0 0 0 0 0 
0 0 0 0 0 0 0 0 0 
0 0 0 0 0 0 0 0 0 
0 0 0 0 0 0 0 0 0 
0 0 0 0 0 0 0 0 0 
0 0 0 0 0 0 0 0 0 
0 0 0 0 0 0 0 0 0 
0 0 0 0 0 0 0 0 0 
0 0 0 0 0 0 0 0 0 
0 0 0 0 0 0 0 0 0 
0 0 0 0 0 0 0 0 0 
0 0 0 0 0 0 0 0 0 
0 0 0 0 0 0 0 0 0 
0 0 0 0 0 0 0 0 0 
0 0 0 0 0 0 0 0 0 
0 0 0 0 0 0 0 0 0 
0 0 0 0 0 0 0 0 0 
0 0 0 0 0 0 0 0 0 
0 0 0 0 0 0 0 0 0 
0 0 0 0 0 0 0 0 0 
0 0 0 0 0 0 0 0 0 
0 0 0 0 0 0 0 0 0 
0 0 0 0 0 0 0 0 0 
0 0 0 0 0 0 0 0 0 
0 0 0 0 0 0 0 0 0 
0 0 0 0 0 0 0 0 0 
0 0 0 0 0 0 0 0 0 
0 0 0 0 0 0 0 0 0 
0 0 0 0 0 0 0 0 0 
0 0 0 0 0 0 0 0 0 
0 0 0 0 0 0 0 0 0 
0 0 0 0 0 0 0 0 0 
0 0 0 0 0 0 0 0 0 
0 0 0 0 0 0 0 0 0 
0 0 0 0 0 0 0 0 0 
0 0 0 0 0 0 0 0 0 
0 0 0 0 0 0 0 0 0 
0 0 0 0 0 0 0 0 0 
0 0 0 0 0 0 0 0 0 
0 0 0 0 0 0 0 0 0 
0 0 0 0 0 0 0 0 0 
0 0 0 0 0 0 0 0 0 
0 0 0 0 0 0 0 0 0 
0 0 0 0 0 0 0 0 0 
0 0 0 0 0 0 0 0 0 
0 0 0 0 0 0 0 0 0 
0 0 0 0 0 0 0 0 0 
0 0 0 0 0 0 0 0 0 
0 0 0 0 0 0 0 0 0 
0 0 0 0 0 0 0 0 0 
0 0 0 0 0 0 0 0 0 
0 0 0 0 0 0 0 0 0 
0 0 0 0 0 0 0 0 0 
0 0 0 0 0 0 0 0 0 
0 0 0 0 0 0 0 0 0 
0 0 0 0 0 0 0 0 0 
0 0 0 0 0 0 0 0 0 
0 0 0 0 0 0 0 0 0 
0 0 0 0 0 0 0 0 0 
0 0 0 0 0 0 0 0 0 
0 0 0 0 0 0 0 0 0 
0 0 0 0 0 0 0 0 0 
0 0 0 0 0 0 0 0 0 
0 0 0 0 0 0 0 0 0 
0 0 0 0 0 0 0 0 0 
0 0 0 0 0 0 0 0 0 
0 0 0 0 0 0 0 0 0 
0 0 0 0 0 0 0 0 0 
0 0 0 0 0 0 0 0 0 
0 0 0 0 0 0 0 0 0 
0 0 0 0 0 0 0 0 0 
0 0 0 0 0 0 0 0 0 
0 0 0 0 0 0 0 0 0 
0 0 0 0 0 0 0 0 0 
0 0 0 0 0 0 0 0 0 
0 0 0 0 0 0 0 0 0 
0 0 0 0 0 0 0 0 0 
0 0 0 0 0 0 0 0 0 
0 0 0 0 0 0 0 0 0 
0 0 0 0 0 0 0 0 0 
0 0 0 0 0 0 0 0 0 
0 0 0 0 0 0 0 0 0 
0 0 0 0 0 0 0 0 0 
0 0 0 0 0 0 0 0 0 
0 0 0 0 0 0 0 0 0 
0 0 0 0 0 0 0 0 0 
0 0 0 0 0 0 0 0 0 
0 0 0 0 0 0 0 0 0 
0 0 0 0 0 0 0 0 0 
0 0 0 0 0 0 0 0 0 
0 0 0 0 0 0 0 0 0 
0 0 0 0 0 0 0 0 0 
0 0 0 0 0 0 0 0 0 
0 0 0 0 0 0 0 0 0 
0 0 0 0 0 0 0 0 0 
0 0 0 0 0 0 0 0 0 
0 0 0 0 0 0 0 0 0 
0 0 0 0 0 0 0 0 0 
0 
CellId 1 10000 long
0 0 0 0 0 0 0 0 0 
0 0 0 0 0 0 0 0 0 
0 0 0 0 0 0 0 0 0 
0 0 0 0 0 0 0 0 0 
0 0 0 0 0 0 0 0 0 
0 0 0 0 0 0 0 0 0 
0 0 0 0 0 0 0 0 0 
0 0 0 0 0 0 0 0 0 
0 0 0 0 0 0 0 0 0 
0 0 0 0 0 0 0 0 0 
0 0 0 0 0 0 0 0 0 
0 0 0 0 0 0 0 0 0 
0 0 0 0 0 0 0 0 0 
0 0 0 0 0 0 0 0 0 
0 0 0 0 0 0 0 0 0 
0 0 0 0 0 0 0 0 0 
0 0 0 0 0 0 0 0 0 
0 0 0 0 0 0 0 0 0 
0 0 0 0 0 0 0 0 0 
0 0 0 0 0 0 0 0 0 
0 0 0 0 0 0 0 0 0 
0 0 0 0 0 0 0 0 0 
0 0 0 0 0 0 0 0 0 
0 0 0 0 0 0 0 0 0 
0 0 0 0 0 0 0 0 0 
0 0 0 0 0 0 0 0 0 
0 0 0 0 0 0 0 0 0 
0 0 0 0 0 0 0 0 0 
0 0 0 0 0 0 0 0 0 
0 0 0 0 0 0 0 0 0 
0 0 0 0 0 0 0 0 0 
0 0 0 0 0 0 0 0 0 
0 0 0 0 0 0 0 0 0 
0 0 0 0 0 0 0 0 0 
0 0 0 0 0 0 0 0 0 
0 0 0 0 0 0 0 0 0 
0 0 0 0 0 0 0 0 0 
0 0 0 0 0 0 0 0 0 
0 0 0 0 0 0 0 0 0 
0 0 0 0 0 0 0 0 0 
0 0 0 0 0 0 0 0 0 
0 0 0 0 0 0 0 0 0 
0 0 0 0 0 0 0 0 0 
0 0 0 0 0 0 0 0 0 
0 0 0 0 0 0 0 0 0 
0 0 0 0 0 0 0 0 0 
0 0 0 0 0 0 0 0 0 
0 0 0 0 0 0 0 0 0 
0 0 0 0 0 0 0 0 0 
0 0 0 0 0 0 0 0 0 
0 0 0 0 0 0 0 0 0 
0 0 0 0 0 0 0 0 0 
0 0 0 0 0 0 0 0 0 
0 0 0 0 0 0 0 0 0 
0 0 0 0 0 0 0 0 0 
0 0 0 0 0 0 0 0 0 
0 0 0 0 0 0 0 0 0 
0 0 0 0 0 0 0 0 0 
0 0 0 0 0 0 0 0 0 
0 0 0 0 0 0 0 0 0 
0 0 0 0 0 0 0 0 0 
0 0 0 0 0 0 0 0 0 
0 0 0 0 0 0 0 0 0 
0 0 0 0 0 0 0 0 0 
0 0 0 0 0 0 0 0 0 
0 0 0 0 0 0 0 0 0 
0 0 0 0 0 0 0 0 0 
0 0 0 0 0 0 0 0 0 
0 0 0 0 0 0 0 0 0 
0 0 0 0 0 0 0 0 0 
0 0 0 0 0 0 0 0 0 
0 0 0 0 0 0 0 0 0 
0 0 0 0 0 0 0 0 0 
0 0 0 0 0 0 0 0 0 
0 0 0 0 0 0 0 0 0 
0 0 0 0 0 0 0 0 0 
0 0 0 0 0 0 0 0 0 
0 0 0 0 0 0 0 0 0 
0 0 0 0 0 0 0 0 0 
0 0 0 0 0 0 0 0 0 
0 0 0 0 0 0 0 0 0 
0 0 0 0 0 0 0 0 0 
0 0 0 0 0 0 0 0 0 
0 0 0 0 0 0 0 0 0 
0 0 0 0 0 0 0 0 0 
0 0 0 0 0 0 0 0 0 
0 0 0 0 0 0 0 0 0 
0 0 0 0 0 0 0 0 0 
0 0 0 0 0 0 0 0 0 
0 0 0 0 0 0 0 0 0 
0 0 0 0 0 0 0 0 0 
0 0 0 0 0 0 0 0 0 
0 0 0 0 0 0 0 0 0 
0 0 0 0 0 0 0 0 0 
0 0 0 0 0 0 0 0 0 
0 0 0 0 0 0 0 0 0 
0 0 0 0 0 0 0 0 0 
0 0 0 0 0 0 0 0 0 
0 0 0 0 0 0 0 0 0 
0 0 0 0 0 0 0 0 0 
0 0 0 0 0 0 0 0 0 
0 0 0 0 0 0 0 0 0 
0 0 0 0 0 0 0 0 0 
0 0 0 0 0 0 0 0 0 
0 0 0 0 0 0 0 0 0 
0 0 0 0 0 0 0 0 0 
0 0 0 0 0 0 0 0 0 
0 0 0 0 0 0 0 0 0 
0 0 0 0 0 0 0 0 0 
0 0 0 0 0 0 0 0 0 
0 0 0 0 0 0 0 0 0 
0 0 0 0 0 0 0 0 0 
0 0 0 0 0 0 0 0 0 
0 0 0 0 0 0 0 0 0 
0 0 0 0 0 0 0 0 0 
0 0 0 0 0 0 0 0 0 
0 0 0 0 0 0 0 0 0 
0 0 0 0 0 0 0 0 0 
0 0 0 0 0 0 0 0 0 
0 0 0 0 0 0 0 0 0 
0 0 0 0 0 0 0 0 0 
0 0 0 0 0 0 0 0 0 
0 0 0 0 0 0 0 0 0 
0 0 0 0 0 0 0 0 0 
0 0 0 0 0 0 0 0 0 
0 0 0 0 0 0 0 0 0 
0 0 0 0 0 0 0 0 0 
0 0 0 0 0 0 0 0 0 
0 0 0 0 0 0 0 0 0 
0 0 0 0 0 0 0 0 0 
0 0 0 0 0 0 0 0 0 
0 0 0 0 0 0 0 0 0 
0 0 0 0 0 0 0 0 0 
0 0 0 0 0 0 0 0 0 
0 0 0 0 0 0 0 0 0 
0 0 0 0 0 0 0 0 0 
0 0 0 0 0 0 0 0 0 
0 0 0 0 0 0 0 0 0 
0 0 0 0 0 0 0 0 0 
0 0 0 0 0 0 0 0 0 
0 0 0 0 0 0 0 0 0 
0 0 0 0 0 0 0 0 0 
0 0 0 0 0 0 0 0 0 
0 0 0 0 0 0 0 0 0 
0 0 0 0 0 0 0 0 0 
0 0 0 0 0 0 0 0 0 
0 0 0 0 0 0 0 0 0 
0 0 0 0 0 0 0 0 0 
0 0 0 0 0 0 0 0 0 
0 0 0 0 0 0 0 0 0 
0 0 0 0 0 0 0 0 0 
0 0 0 0 0 0 0 0 0 
0 0 0 0 0 0 0 0 0 
0 0 0 0 0 0 0 0 0 
0 0 0 0 0 0 0 0 0 
0 0 0 0 0 0 0 0 0 
0 0 0 0 0 0 0 0 0 
0 0 0 0 0 0 0 0 0 
0 0 0 0 0 0 0 0 0 
0 0 0 0 0 0 0 0 0 
0 0 0 0 0 0 0 0 0 
0 0 0 0 0 0 0 0 0 
0 0 0 0 0 0 0 0 0 
0 0 0 0 0 0 0 0 0 
0 0 0 0 0 0 0 0 0 
0 0 0 0 0 0 0 0 0 
0 0 0 0 0 0 0 0 0 
0 0 0 0 0 0 0 0 0 
0 0 0 0 0 0 0 0 0 
0 0 0 0 0 0 0 0 0 
0 1 1 1 1 1 2 2 2 
2 2 2 2 3 3 3 3 3 
3 4 4 4 4 4 5 5 5 
5 14 14 14 14 6 6 6 6 
6 7 7 7 7 7 7 7 0 
0 0 0 0 0 0 0 0 0 
0 0 0 0 0 0 0 0 0 
0 0 0 0 0 0 0 0 0 
0 0 0 0 0 0 0 0 0 
0 0 0 0 0 0 0 0 0 
0 0 0 0 0 0 0 0 0 
0 8 1 1 1 1 1 2 2 
2 2 2 2 2 3 3 3 3 
3 3 4 4 4 4 4 5 5 
5 5 14 14 14 14 6 6 6 
6 6 7 7 7 7 7 7 7 
17 0 0 0 0 0 0 0 0 
0 0 0 0 0 0 0 0 0 
0 0 0 0 0 0 0 0 0 
0 0 0 0 0 0 0 0 0 
0 0 0 0 0 0 0 0 0 
0 0 0 0 0 0 0 0 0 
0 8 8 1 1 1 1 1 2 
2 2 2 2 2 11 3 3 3 
3 3 3 4 4 4 4 4 5 
5 5 5 14 14 14 14 6 6 
6 6 6 7 7 7 7 7 7 
17 17 17 0 0 0 0 0 0 
0 0 0 0 0 0 0 0 0 
0 0 0 0 0 0 0 0 0 
0 0 0 0 0 0 0 0 0 
0 0 0 0 0 0 0 0 0 
0 0 0 0 0 0 0 0 0 
0 8 8 8 1 1 1 1 21 
21 2 2 2 2 11 11 11 3 
3 3 3 3 4 4 4 4 4 
5 5 5 5 14 14 14 14 6 
6 6 6 6 27 7 7 7 7 
17 17 17 17 17 0 0 0 0 
0 0 0 0 0 0 0 0 0 
0 0 0 0 0 0 0 0 0 
0 0 0 0 0 0 0 0 0 
0 0 0 0 0 0 0 0 0 
0 0 0 0 0 0 0 0 0 
0 8 8 8 8 8 1 1 1 
21 21 21 21 2 11 11 11 11 
11 3 3 3 4 4 4 4 4 
4 5 5 5 5 14 14 14 14 
14 6 6 6 6 27 16 16 16 
16 17 17 17 17 17 17 0 0 
0 0 0 0 0 0 0 0 0 
0 0 0 0 0 0 0 0 0 
0 0 0 0 0 0 0 0 0 
0 0 0 0 0 0 0 0 0 
0 0 0 0 0 0 0 0 0 
0 8 8 8 8 8 8 1 1 
1 21 21 21 21 10 11 11 11 
11 11 11 11 12 12 12 12 12 
4 4 5 5 5 5 14 14 14 
14 14 14 6 27 27 27 16 16 
16 16 16 17 17 17 17 17 18 
0 0 0 0 0 0 0 0 0 
0 0 0 0 0 0 0 0 0 
0 0 0 0 0 0 0 0 0 
0 0 0 0 0 0 0 0 0 
0 0 0 0 0 0 0 0 0 
0 8 8 8 8 8 8 8 1 
1 21 21 21 21 10 10 10 11 
11 11 11 11 11 12 12 12 12 
12 12 4 5 5 5 5 5 15 
15 15 15 15 15 27 27 27 16 
16 16 16 16 17 17 17 17 18 
18 18 0 0 0 0 0 0 0 
0 0 0 0 0 0 0 0 0 
0 0 0 0 0 0 0 0 0 
0 0 0 0 0 0 0 0 0 
0 0 0 0 0 0 0 0 0 
0 9 9 9 9 9 9 9 9 
21 21 21 21 21 10 10 10 10 
10 11 11 11 11 12 12 12 12 
12 12 12 4 4 26 26 26 26 
26 15 15 15 15 15 27 27 27 
16 16 16 16 16 30 30 30 18 
18 18 18 18 0 0 0 0 0 
0 0 0 0 0 0 0 0 0 
0 0 0 0 0 0 0 0 0 
0 0 0 0 0 0 0 0 0 
0 0 0 0 0 0 0 0 0 
0 19 9 9 9 9 9 9 9 
9 21 21 21 21 21 10 10 10 
10 10 11 11 11 11 12 12 12 
12 12 12 12 13 13 13 26 26 
26 26 15 15 15 15 15 27 27 
27 16 16 16 16 30 30 30 30 
18 18 18 18 18 18 0 0 0 
0 0 0 0 0 0 0 0 0 
0 0 0 0 0 0 0 0 0 
0 0 0 0 0 0 0 0 0 
0 0 0 0 0 0 0 0 0 
0 19 19 19 9 9 9 9 9 
9 9 21 21 21 21 21 10 10 
10 10 10 23 23 23 23 25 25 
25 25 25 25 25 13 13 13 26 
26 26 26 26 15 15 15 15 27 
27 27 27 27 27 30 30 30 30 
30 18 18 18 18 18 43 43 0 
0 0 0 0 0 0 0 0 0 
0 0 0 0 0 0 0 0 0 
0 0 0 0 0 0 0 0 0 
0 0 0 0 0 0 0 0 0 
0 19 19 19 19 9 9 9 20 
20 20 20 22 22 22 22 22 10 
10 10 10 36 23 23 23 23 25 
25 25 25 25 25 25 13 13 13 
13 26 26 26 26 26 15 15 15 
27 27 27 27 27 27 30 30 30 
30 30 18 18 18 18 43 43 43 
43 0 0 0 0 0 0 0 0 
0 0 0 0 0 0 0 0 0 
0 0 0 0 0 0 0 0 0 
0 0 0 0 0 0 0 0 0 
0 19 19 19 19 19 9 9 20 
20 20 20 20 22 22 22 22 22 
36 36 36 36 36 23 23 23 23 
25 25 25 25 25 25 25 13 13 
13 13 13 26 26 26 26 26 15 
15 27 27 27 27 27 27 30 30 
30 30 31 31 31 31 31 43 43 
43 43 43 0 0 0 0 0 0 
0 0 0 0 0 0 0 0 0 
0 0 0 0 0 0 0 0 0 
0 0 0 0 0 0 0 0 0 
0 19 19 19 19 19 19 9 20 
20 20 20 20 20 22 22 22 22 
22 36 36 36 36 36 23 23 23 
23 25 25 25 25 25 25 25 13 
13 13 13 13 13 28 28 28 28 
28 28 27 27 29 29 29 29 30 
30 30 31 31 31 31 31 31 43 
43 43 43 43 43 0 0 0 0 
0 0 0 0 0 0 0 0 0 
0 0 0 0 0 0 0 0 0 
0 0 0 0 0 0 0 0 0 
0 0 19 19 19 19 19 19 20 
20 20 20 20 20 22 22 22 22 
22 22 36 36 36 36 36 23 23 
23 23 24 24 24 24 24 24 25 
13 13 13 13 39 39 39 28 28 
28 28 28 28 29 29 29 29 29 
31 31 31 31 31 31 31 31 31 
43 43 43 43 43 44 59 0 0 
0 0 0 0 0 0 0 0 0 
0 0 0 0 0 0 0 0 0 
0 0 0 0 0 0 0 0 0 
0 0 0 33 33 33 33 33 33 
33 20 20 20 20 22 22 22 22 
22 22 22 36 36 36 36 36 23 
23 23 37 37 24 24 24 24 24 
24 13 13 13 39 39 39 39 28 
28 28 28 28 28 29 29 29 29 
29 31 31 31 31 31 42 42 42 
42 43 43 43 43 44 44 59 59 
0 0 0 0 0 0 0 0 0 
0 0 0 0 0 0 0 0 0 
0 0 0 0 0 0 0 0 0 
0 0 0 32 32 32 33 33 33 
33 33 33 33 33 34 34 34 34 
34 34 34 35 36 36 36 36 36 
23 23 37 37 37 24 24 24 24 
24 38 38 13 39 39 39 39 39 
39 28 28 28 28 40 29 29 29 
29 29 31 31 31 31 42 42 42 
42 42 44 44 44 44 44 44 59 
59 59 0 0 0 0 0 0 0 
0 0 0 0 0 0 0 0 0 
0 0 0 0 0 0 0 0 0 
0 0 0 32 32 32 32 32 33 
33 33 33 33 33 33 34 34 34 
34 34 34 35 35 35 35 36 36 
36 23 37 37 37 37 37 24 24 
24 24 38 38 38 39 39 39 39 
39 39 28 28 28 40 40 29 29 
29 29 29 31 31 31 31 42 42 
42 42 42 44 44 44 44 44 44 
59 59 59 59 0 0 0 0 0 
0 0 0 0 0 0 0 0 0 
0 0 0 0 0 0 0 0 0 
0 0 0 32 32 32 32 32 32 
32 32 33 33 33 33 33 34 34 
34 34 34 34 35 35 35 35 35 
36 36 50 37 37 37 37 37 37 
24 24 38 38 38 38 53 39 39 
39 39 39 28 40 40 40 40 40 
40 40 40 41 41 41 41 41 42 
42 42 42 42 44 44 44 44 44 
59 59 59 59 59 0 0 0 0 
0 0 0 0 0 0 0 0 0 
0 0 0 0 0 0 0 0 0 
0 0 0 32 32 32 32 32 32 
32 32 32 32 33 33 33 33 34 
34 34 34 34 34 35 35 35 35 
35 36 50 50 50 37 37 37 37 
37 24 38 38 38 38 38 53 53 
53 53 53 53 40 40 40 40 40 
40 40 40 41 41 41 41 41 41 
42 42 42 42 42 44 44 44 44 
44 59 59 59 59 59 0 0 0 
0 0 0 0 0 0 0 0 0 
0 0 0 0 0 0 0 0 0 
0 0 0 0 32 32 32 32 32 
32 46 46 46 46 46 47 47 47 
48 48 48 48 48 34 35 35 35 
35 35 50 50 50 50 50 37 37 
37 37 52 38 38 38 38 38 53 
53 53 53 53 53 40 40 40 40 
40 40 40 40 41 41 41 41 41 
41 42 42 42 42 42 44 44 44 
44 44 59 59 59 59 59 0 0 
0 0 0 0 0 0 0 0 0 
0 0 0 0 0 0 0 0 0 
0 0 0 0 0 45 45 45 45 
45 46 46 46 46 46 46 47 47 
47 48 48 48 48 48 48 35 35 
35 35 49 50 50 50 50 50 51 
52 52 52 52 52 52 38 38 38 
53 53 53 53 53 53 40 55 55 
55 55 55 55 40 41 41 41 41 
41 56 56 56 56 56 57 57 57 
57 57 57 58 58 58 58 58 0 
0 0 0 0 0 0 0 0 0 
0 0 0 0 0 0 0 0 0 