# vtk DataFile Version 5.1
vtk output
ASCII
DATASET STRUCTURED_POINTS
DIMENSIONS 100 100 1
SPACING 1 1 1
ORIGIN 0 0 0
POINT_DATA 10000
FIELD FieldData 3
CellType 1 10000 char
0 0 0 0 0 0 0 0 0 
0 0 0 0 0 0 0 0 0 
0 0 0 0 0 0 0 0 0 
0 0 0 0 0 0 0 0 0 
0 0 0 0 0 0 0 0 0 
0 0 0 0 0 0 0 0 0 
0 0 0 0 0 0 0 0 0 
0 0 0 0 0 0 0 0 0 
0 0 0 0 0 0 0 0 0 
0 0 0 0 0 0 0 0 0 
0 0 0 0 0 0 0 0 0 
0 0 0 0 0 0 0 0 0 
0 0 0 0 0 0 0 0 0 
0 0 0 0 0 0 0 0 0 
0 0 0 0 0 0 0 0 0 
0 0 0 0 0 0 0 0 0 
0 0 0 0 0 0 0 0 0 
0 0 0 0 0 0 0 0 0 
0 0 0 0 0 0 0 0 0 
0 0 0 0 0 0 0 0 0 
0 0 0 0 0 0 0 0 0 
0 0 0 0 0 0 0 0 0 
0 0 0 0 0 0 0 0 0 
0 0 0 0 0 0 0 0 0 
0 0 0 0 0 0 0 0 0 
0 0 0 0 0 0 0 0 0 
0 0 0 0 0 0 0 0 0 
0 0 0 0 0 0 0 0 0 
0 0 0 0 0 0 0 0 0 
0 0 0 0 0 0 0 0 0 
0 0 0 0 0 0 0 0 0 
0 0 0 0 0 0 0 0 0 
0 0 0 0 0 0 0 0 0 
0 0 0 0 0 0 0 0 0 
0 0 0 0 0 0 0 0 0 
0 0 0 0 0 0 0 0 0 
0 0 0 0 0 0 0 0 0 
0 0 0 0 0 0 0 0 0 
0 0 0 0 0 0 0 0 0 
0 0 0 0 0 0 0 0 0 
0 0 0 0 0 0 0 0 0 
0 0 0 0 0 0 0 0 0 
0 0 0 0 0 0 0 0 0 
0 0 0 0 0 0 0 0 0 
0 0 0 0 0 0 0 0 0 
0 0 0 0 0 0 0 0 0 
0 0 0 0 0 0 0 0 0 
0 0 0 0 0 0 0 0 0 
0 0 0 0 0 0 0 0 0 
0 0 0 0 0 0 0 0 0 
0 0 0 0 0 0 0 0 0 
0 0 0 0 0 0 0 0 0 
0 0 0 0 0 0 0 0 0 
0 0 0 0 0 0 0 0 0 
0 0 0 0 0 0 0 0 0 
0 0 0 0 0 0 0 0 0 
0 0 0 0 0 0 0 0 0 
0 0 0 0 0 0 0 0 0 
0 0 0 0 0 0 0 0 0 
0 0 0 0 0 0 0 0 0 
0 0 0 0 0 0 0 0 0 
0 0 0 0 0 0 0 0 0 
0 0 0 0 0 0 0 0 0 
0 0 0 0 0 0 0 0 0 
0 0 0 0 0 0 0 0 0 
0 0 0 0 0 0 0 0 0 
0 0 0 0 0 0 0 0 0 
0 0 0 0 0 0 0 0 0 
0 0 0 0 0 0 0 0 0 
0 0 0 0 0 0 0 0 0 
0 0 0 0 0 0 0 0 0 
0 0 0 0 0 0 0 0 0 
0 0 0 0 0 0 0 0 0 
0 0 0 0 0 0 0 0 0 
0 0 0 0 0 0 0 0 0 
0 0 0 0 0 0 0 0 0 
0 0 0 0 0 0 0 0 0 
0 0 0 0 0 0 0 0 0 
0 0 0 0 0 0 0 0 0 
0 0 0 0 0 0 0 0 0 
0 0 0 0 0 0 0 0 0 
0 0 0 0 0 0 0 0 0 
0 0 0 0 0 0 0 0 0 
0 0 0 0 0 0 0 0 0 
0 0 0 0 0 0 0 0 0 
0 0 0 0 0 0 0 0 0 
0 0 0 0 0 0 0 0 0 
0 0 0 0 0 0 0 0 0 
0 0 0 0 0 0 0 0 0 
0 0 0 0 0 0 0 0 0 
0 0 0 0 0 0 0 0 0 
0 0 0 0 0 0 0 0 0 
0 0 0 0 0 0 0 0 0 
0 0 0 0 0 0 0 0 0 
0 0 0 0 0 0 0 0 0 
0 0 0 0 0 0 0 0 0 
0 0 0 0 0 0 0 0 0 
0 0 0 0 0 0 0 0 0 
0 0 0 0 0 0 0 0 0 
0 0 0 0 0 0 0 0 0 
0 0 0 0 0 0 0 0 0 
0 0 0 0 0 0 0 0 0 
0 0 0 0 0 0 0 0 0 
0 0 0 0 0 0 0 0 0 
0 0 0 0 0 0 0 0 0 
0 0 0 0 0 0 0 0 0 
0 0 0 0 0 0 0 0 0 
0 0 0 0 0 0 0 0 0 
0 0 0 0 0 0 0 0 0 
0 0 0 0 0 0 0 0 0 
0 0 0 0 0 0 0 0 0 
0 0 0 0 0 0 0 0 0 
0 0 0 0 0 0 0 0 0 
0 0 0 0 0 0 0 0 0 
0 0 0 0 0 0 0 0 0 
0 0 0 0 0 0 0 0 0 
0 0 0 0 0 0 0 0 0 
0 0 0 0 0 0 0 0 0 
0 0 0 0 0 0 0 0 0 
0 0 0 0 0 0 0 0 0 
0 0 0 0 0 0 0 0 0 
0 0 0 0 0 0 0 0 0 
0 0 0 0 0 0 0 0 0 
0 0 0 0 0 0 0 0 0 
0 0 0 0 0 0 0 0 0 
0 0 0 0 0 0 0 0 0 
0 0 0 0 0 0 0 0 0 
0 0 0 0 0 0 0 0 0 
0 0 0 0 0 0 0 0 0 
0 0 0 0 0 0 0 0 0 
0 0 0 0 0 0 0 0 0 
0 0 0 0 0 0 0 0 0 
0 0 0 0 0 0 0 0 0 
0 0 0 0 0 0 0 0 0 
0 0 0 0 0 0 0 0 0 
0 0 0 0 0 0 0 0 0 
0 0 0 0 0 0 0 0 0 
0 0 0 0 0 0 0 0 0 
0 0 0 0 0 0 0 0 0 
0 0 0 0 0 0 0 0 0 
0 0 0 0 0 0 0 0 0 
0 0 0 0 0 0 0 0 0 
0 0 0 0 0 0 0 0 0 
0 0 0 0 0 0 0 0 0 
0 0 0 0 0 0 0 0 0 
0 0 0 0 0 0 0 0 0 
0 0 0 0 0 0 0 0 0 
0 0 0 0 0 0 0 0 0 
0 0 0 0 0 0 0 0 0 
0 0 0 0 0 0 0 0 0 
0 0 0 0 0 0 0 0 0 
0 0 0 0 0 0 0 0 0 
0 0 0 0 0 0 0 0 0 
0 0 0 0 0 0 0 0 0 
0 0 0 0 0 0 0 0 0 
0 0 0 0 0 0 0 0 0 
0 0 0 0 0 0 0 0 0 
0 0 0 0 0 0 0 0 0 
0 0 0 0 0 0 0 0 0 
0 0 0 0 0 0 0 0 0 
0 0 0 0 0 0 0 0 0 
0 0 0 0 0 0 0 0 0 
0 0 0 0 0 0 0 0 0 
0 0 0 0 0 0 0 0 0 
0 0 0 0 0 0 0 0 0 
0 0 0 0 0 0 0 0 0 
0 0 0 0 0 0 0 0 0 
0 0 0 0 0 0 0 0 0 
0 0 0 0 0 0 0 0 0 
0 0 0 0 0 0 0 0 0 
0 2 2 2 1 1 1 2 2 
2 2 2 1 1 1 2 2 2 
2 2 1 1 1 2 2 2 2 
2 1 1 1 1 2 2 2 2 
1 1 1 2 2 2 2 2 0 
0 0 0 0 0 0 0 0 0 
0 0 0 0 0 0 0 0 0 
0 0 0 0 0 0 0 0 0 
0 0 0 0 0 0 0 0 0 
0 0 0 0 0 0 0 0 0 
0 0 0 0 0 0 0 0 0 
0 2 2 2 2 1 1 1 2 
2 2 2 2 1 1 1 2 2 
2 2 2 1 1 1 2 2 2 
2 2 1 1 1 1 2 2 2 
2 1 1 1 2 2 2 2 2 
2 0 0 0 0 0 0 0 0 
0 0 0 0 0 0 0 0 0 
0 0 0 0 0 0 0 0 0 
0 0 0 0 0 0 0 0 0 
0 0 0 0 0 0 0 0 0 
0 0 0 0 0 0 0 0 0 
0 1 2 2 2 2 1 1 1 
2 2 2 2 2 1 1 1 2 
2 2 2 2 1 1 1 1 2 
2 2 2 1 1 1 1 2 2 
2 2 1 1 1 2 2 2 2 
2 2 1 0 0 0 0 0 0 
0 0 0 0 0 0 0 0 0 
0 0 0 0 0 0 0 0 0 
0 0 0 0 0 0 0 0 0 
0 0 0 0 0 0 0 0 0 
0 0 0 0 0 0 0 0 0 
0 1 1 1 2 2 2 1 1 
1 2 2 2 2 2 1 1 1 
2 2 2 2 2 1 1 1 1 
1 2 2 2 1 1 1 1 2 
2 2 2 1 1 1 2 2 2 
2 1 1 1 1 0 0 0 0 
0 0 0 0 0 0 0 0 0 
0 0 0 0 0 0 0 0 0 
0 0 0 0 0 0 0 0 0 
0 0 0 0 0 0 0 0 0 
0 0 0 0 0 0 0 0 0 
0 1 1 1 1 2 2 2 1 
1 1 2 2 2 2 1 1 1 
1 2 2 2 2 2 1 1 1 
1 1 1 2 2 1 1 1 1 
2 2 2 2 1 1 1 2 2 
2 1 1 1 1 1 1 0 0 
0 0 0 0 0 0 0 0 0 
0 0 0 0 0 0 0 0 0 
0 0 0 0 0 0 0 0 0 
0 0 0 0 0 0 0 0 0 
0 0 0 0 0 0 0 0 0 
0 1 1 1 1 1 2 2 2 
1 1 1 1 2 2 1 1 1 
1 1 2 2 1 1 1 2 2 
2 1 1 1 2 2 1 1 1 
1 2 2 2 2 1 1 1 1 
2 2 1 1 1 1 1 2 2 
0 0 0 0 0 0 0 0 0 
0 0 0 0 0 0 0 0 0 
0 0 0 0 0 0 0 0 0 
0 0 0 0 0 0 0 0 0 
0 0 0 0 0 0 0 0 0 
0 1 1 1 1 1 1 2 2 
2 1 1 1 1 1 1 1 1 
1 1 1 2 2 1 1 1 2 
2 2 2 1 1 1 1 1 1 
1 2 2 2 2 2 1 1 1 
1 1 1 1 1 1 1 2 2 
2 2 0 0 0 0 0 0 0 
0 0 0 0 0 0 0 0 0 
0 0 0 0 0 0 0 0 0 
0 0 0 0 0 0 0 0 0 
0 0 0 0 0 0 0 0 0 
0 2 2 1 1 1 1 1 2 
2 2 2 2 2 2 2 2 2 
2 2 2 2 1 1 1 1 1 
2 2 2 2 2 1 2 2 2 
2 1 1 1 1 1 2 1 1 
1 1 2 2 1 1 1 1 2 
2 2 2 2 0 0 0 0 0 
0 0 0 0 0 0 0 0 0 
0 0 0 0 0 0 0 0 0 
0 0 0 0 0 0 0 0 0 
0 0 0 0 0 0 0 0 0 
0 1 2 2 2 2 2 2 2 
1 1 1 1 1 2 2 2 2 
2 2 2 2 2 1 1 1 1 
1 2 2 2 2 2 1 2 2 
2 2 1 1 1 1 1 1 2 
2 2 1 2 2 2 2 2 1 
2 2 2 2 2 2 0 0 0 
0 0 0 0 0 0 0 0 0 
0 0 0 0 0 0 0 0 0 
0 0 0 0 0 0 0 0 0 
0 0 0 0 0 0 0 0 0 
0 1 1 2 2 2 2 2 2 
2 1 1 1 1 1 1 2 2 
2 2 2 2 2 2 1 1 1 
1 1 2 2 2 2 2 1 2 
2 2 2 1 1 1 1 1 1 
2 2 2 1 2 2 2 2 2 
1 2 2 2 2 2 2 2 0 
0 0 0 0 0 0 0 0 0 
0 0 0 0 0 0 0 0 0 
0 0 0 0 0 0 0 0 0 
0 0 0 0 0 0 0 0 0 
0 1 1 1 2 2 2 2 2 
2 2 1 1 1 1 1 1 1 
1 1 1 1 1 1 1 1 1 
1 1 1 1 1 1 1 1 1 
2 2 2 2 1 1 1 1 1 
1 2 2 2 1 1 2 2 2 
2 1 1 1 1 1 2 2 1 
1 0 0 0 0 0 0 0 0 
0 0 0 0 0 0 0 0 0 
0 0 0 0 0 0 0 0 0 
0 0 0 0 0 0 0 0 0 
0 1 1 1 1 2 2 2 2 
2 2 2 1 1 1 1 1 2 
2 2 1 1 1 1 1 2 2 
2 2 2 2 2 1 1 1 1 
1 2 2 2 2 2 1 1 1 
1 2 2 2 2 1 1 1 2 
2 2 1 1 1 1 1 1 1 
1 1 1 0 0 0 0 0 0 
0 0 0 0 0 0 0 0 0 
0 0 0 0 0 0 0 0 0 
0 0 0 0 0 0 0 0 0 
0 1 1 1 1 1 2 1 1 
1 1 1 1 1 1 1 1 2 
2 2 2 1 1 1 1 1 2 
2 2 2 2 2 2 1 1 1 
1 1 2 2 2 2 2 2 2 
2 2 2 2 2 2 1 1 1 
2 2 2 1 1 1 1 1 2 
2 1 1 1 1 0 0 0 0 
0 0 0 0 0 0 0 0 0 
0 0 0 0 0 0 0 0 0 
0 0 0 0 0 0 0 0 0 
0 1 1 1 1 1 1 1 1 
1 1 1 1 2 2 2 1 1 
2 2 2 2 1 1 1 1 1 
2 2 2 2 2 2 2 1 1 
1 1 1 1 1 1 1 1 1 
1 1 1 2 2 2 2 1 1 
1 2 2 2 1 1 1 1 1 
2 2 1 1 1 1 1 0 0 
0 0 0 0 0 0 0 0 0 
0 0 0 0 0 0 0 0 0 
0 0 0 0 0 0 0 0 0 
0 0 2 2 2 2 2 2 1 
1 1 1 1 1 2 2 2 2 
1 2 2 2 2 1 1 1 1 
1 2 2 2 2 2 2 2 1 
1 1 1 1 2 2 1 1 1 
1 1 1 1 2 2 2 2 1 
1 1 2 2 2 1 2 2 2 
2 2 2 1 1 1 1 1 1 
0 0 0 0 0 0 0 0 0 
0 0 0 0 0 0 0 0 0 
0 0 0 0 0 0 0 0 0 
0 0 1 1 2 2 2 2 2 
1 1 1 1 1 2 2 2 2 
2 1 2 2 2 2 1 2 2 
2 2 1 1 1 1 1 1 1 
2 2 2 2 2 2 2 1 1 
1 1 1 1 1 2 2 2 2 
1 1 1 2 2 2 1 2 2 
2 2 2 2 2 1 2 2 2 
2 2 0 0 0 0 0 0 0 
0 0 0 0 0 0 0 0 0 
0 0 0 0 0 0 0 0 0 
0 0 1 1 1 1 2 2 2 
2 2 1 2 2 2 2 2 2 
2 1 1 2 2 2 2 1 2 
2 2 2 1 1 1 1 1 1 
1 2 2 2 2 2 2 2 1 
1 1 1 1 1 1 2 2 2 
2 1 1 1 1 1 1 1 1 
1 2 2 2 2 2 1 2 2 
2 2 2 2 0 0 0 0 0 
0 0 0 0 0 0 0 0 0 
0 0 0 0 0 0 0 0 0 
0 0 1 1 1 1 1 1 2 
2 2 2 1 2 2 2 2 2 
2 1 1 1 1 2 2 1 1 
2 2 2 2 1 1 1 1 1 
1 1 2 2 2 2 2 1 1 
1 2 2 2 2 2 1 1 1 
1 1 1 2 2 2 1 1 1 
1 1 2 2 2 1 1 1 1 
2 2 2 2 2 0 0 0 0 
0 0 0 0 0 0 0 0 0 
0 0 0 0 0 0 0 0 0 
0 0 0 1 1 1 1 1 1 
1 2 2 1 1 1 1 1 1 
2 2 1 1 1 1 2 1 1 
1 2 2 2 2 1 1 2 2 
2 2 2 2 2 2 1 1 1 
1 1 2 2 2 2 2 1 1 
1 1 1 1 2 2 2 1 1 
1 1 1 2 2 1 1 1 1 
1 2 2 2 2 2 0 0 0 
0 0 0 0 0 0 0 0 0 
0 0 0 0 0 0 0 0 0 
0 0 0 0 1 1 1 1 1 
1 1 2 2 1 1 1 1 1 
1 1 1 1 1 1 1 2 1 
1 1 1 2 2 2 1 2 2 
2 2 2 1 1 2 2 1 1 
1 1 1 2 2 2 2 2 1 
1 1 1 1 1 2 2 2 1 
1 1 1 1 1 1 1 1 1 
1 1 2 2 2 2 2 0 0 
0 0 0 0 0 0 0 0 0 
0 0 0 0 0 0 0 0 0 
0 0 0 0 0 2 2 2 2 
1 1 1 2 2 1 1 1 1 
1 1 2 2 1 1 1 2 2 
1 1 1 1 2 2 2 1 2 
2 2 2 2 1 1 2 2 1 
1 1 1 1 2 2 2 2 2 
2 1 1 1 1 2 2 2 2 
2 1 1 1 1 2 2 1 1 
1 1 1 2 2 1 1 1 0 
0 0 0 0 0 0 0 0 0 
0 0 0 0 0 0 0 0 0 
0 0 0 0 0 0 2 2 2 
2 2 2 1 2 2 1 1 1 
2 2 2 2 2 1 1 1 2 
2 1 1 1 1 2 2 2 1 
2 2 2 2 2 1 1 1 1 
1 1 1 1 1 1 1 1 1 
2 2 2 2 1 2 2 2 2 
2 2 2 1 2 2 2 2 2 
2 2 2 2 1 1 1 1 1 
0 0 0 0 0 0 0 0 0 
0 0 0 0 0 0 0 0 0 
0 0 0 0 0 0 0 2 2 
2 2 2 2 2 2 2 1 2 
2 2 2 2 2 2 1 1 2 
2 2 1 1 1 1 2 1 1 
1 1 2 1 1 1 1 1 1 
2 2 2 2 2 2 1 1 1 
1 1 1 2 2 1 2 2 2 
2 2 2 2 1 2 2 2 2 
2 2 2 2 2 1 1 1 1 
1 0 0 0 0 0 0 0 0 
0 0 0 0 0 0 0 0 0 
0 0 0 0 0 0 0 0 2 
2 2 2 2 2 1 1 1 1 
2 2 2 2 2 2 2 2 2 
2 2 2 2 1 1 1 2 1 
1 1 1 2 1 1 1 1 1 
1 2 2 2 2 2 2 1 1 
1 1 1 1 1 1 1 1 1 
1 2 2 1 1 1 1 2 2 
2 2 2 2 2 2 1 1 1 
1 1 0 0 0 0 0 0 0 
0 0 0 0 0 0 0 0 0 
0 0 0 0 0 0 0 0 0 
2 2 2 2 2 1 1 1 1 
1 2 1 1 1 1 1 1 1 
1 2 2 2 2 1 2 2 2 
1 1 1 1 2 2 2 2 2 
1 1 2 2 2 2 2 2 1 
1 1 1 1 1 2 1 1 1 
1 1 1 1 1 1 1 1 2 
2 2 1 1 1 1 1 1 1 
1 1 1 0 0 0 0 0 0 
0 0 0 0 0 0 0 0 0 
0 0 0 0 0 0 0 0 0 
0 1 1 1 1 1 1 1 1 
1 1 2 1 1 1 1 1 1 
1 1 2 2 2 2 1 2 2 
2 1 1 1 1 2 2 2 2 
2 1 1 2 2 1 1 1 1 
1 2 2 2 2 2 2 1 1 
1 1 1 2 2 1 1 1 1 
1 1 1 1 1 1 1 2 2 
2 1 1 1 0 0 0 0 0 
0 0 0 0 0 0 0 0 0 
0 0 0 0 0 0 0 0 0 
0 0 2 2 2 2 1 1 1 
1 1 1 2 2 2 2 2 1 
1 1 1 2 2 2 1 1 2 
2 2 1 1 1 1 2 2 2 
2 2 2 1 2 2 1 1 1 
1 1 2 2 2 2 2 2 1 
1 1 1 1 2 2 1 1 1 
1 2 2 1 1 1 1 1 2 
2 2 2 2 2 0 0 0 0 
0 0 0 0 0 0 0 0 0 
0 0 0 0 0 0 0 0 0 
0 0 0 2 2 2 2 1 1 
1 1 1 1 2 2 2 2 2 
1 1 1 1 1 1 1 1 1 
2 2 2 1 1 1 1 1 1 
1 2 2 2 1 2 2 1 1 
1 1 1 2 2 2 2 2 2 
1 1 2 2 2 2 2 1 1 
2 2 2 2 1 1 1 1 1 
2 2 2 2 2 2 0 0 0 
0 0 0 0 0 0 0 0 0 
0 0 0 0 0 0 0 0 0 
0 0 0 0 2 2 2 2 2 
2 2 2 2 1 2 2 2 2 
2 2 1 2 2 2 2 1 1 
1 2 2 2 1 2 2 2 2 
2 1 1 1 1 1 2 2 1 
1 1 1 1 2 2 2 2 2 
2 2 2 2 2 2 2 2 2 
1 2 2 2 2 2 1 1 1 
1 2 2 2 2 2 2 0 0 
0 0 0 0 0 0 0 0 0 
0 0 0 0 0 0 0 0 0 
0 0 0 0 0 2 2 2 2 
1 2 2 2 2 2 2 2 2 
2 2 2 1 2 2 2 2 1 
1 1 2 2 2 1 2 2 2 
2 2 1 1 1 1 1 2 2 
2 2 1 2 2 2 2 2 2 
1 1 1 1 2 2 2 2 2 
2 1 2 2 2 2 2 2 2 
2 2 2 2 2 2 2 2 0 
0 0 0 0 0 0 0 0 0 
0 0 0 0 0 0 0 0 0 
0 0 0 0 0 0 2 2 2 
1 1 2 2 2 2 1 1 2 
2 1 1 1 1 1 2 2 2 
1 1 1 2 2 2 1 2 2 
2 2 2 1 1 1 1 1 2 
1 1 1 1 1 1 1 1 1 
1 1 1 1 1 1 2 2 2 
1 1 1 1 1 2 2 2 2 
2 1 1 1 1 1 1 1 1 
0 0 0 0 0 0 0 0 0 
0 0 0 0 0 0 0 0 0 
0 0 0 0 0 0 0 2 2 
1 1 1 2 2 2 2 1 1 
1 2 1 1 1 1 1 2 2 
2 1 1 1 2 2 1 1 1 
2 2 2 2 1 1 1 1 1 
2 1 1 1 1 1 1 1 2 
2 1 1 1 1 1 1 1 2 
2 1 1 1 1 1 1 2 2 
1 1 1 1 1 1 1 1 1 
1 0 0 0 0 0 0 0 0 
0 0 0 0 0 0 0 0 0 
0 0 0 0 0 0 0 0 1 
1 1 1 1 2 2 2 2 1 
1 1 2 1 1 1 1 1 2 
2 2 1 1 1 1 1 1 1 
1 1 1 1 2 1 1 1 2 
2 2 1 1 1 1 1 1 2 
2 2 1 1 1 1 1 1 1 
1 1 1 1 1 1 1 1 1 
1 1 1 1 1 1 1 1 1 
1 1 0 0 0 0 0 0 0 
0 0 0 0 0 0 0 0 0 
0 0 0 0 0 0 0 0 0 
2 1 1 1 1 1 1 2 1 
1 1 1 2 2 2 1 1 1 
2 2 2 1 1 1 2 2 1 
1 1 1 1 1 2 2 2 2 
2 2 2 2 1 1 1 1 2 
2 2 2 2 1 1 2 2 2 
2 2 2 1 1 1 1 1 1 
2 2 1 2 2 2 2 2 2 
2 2 2 0 0 0 0 0 0 
0 0 0 0 0 0 0 0 0 
0 0 0 0 0 0 0 0 0 
0 2 2 2 2 1 1 1 2 
1 1 1 1 2 2 2 2 1 
1 2 2 2 2 2 2 2 2 
2 1 1 1 1 1 2 2 2 
2 2 2 2 2 2 1 2 2 
2 2 2 2 2 2 2 2 2 
2 2 2 2 2 2 2 2 2 
2 2 2 1 2 2 2 2 2 
2 2 2 2 0 0 0 0 0 
0 0 0 0 0 0 0 0 0 
0 0 0 0 0 0 0 0 0 
0 0 2 2 2 2 1 1 2 
2 2 2 1 1 2 2 2 2 
1 1 2 1 1 1 1 2 2 
2 2 2 2 2 2 1 1 1 
2 2 2 2 2 2 2 1 2 
2 2 2 2 2 2 1 1 1 
2 2 2 2 2 1 1 2 2 
2 2 2 1 1 2 2 2 2 
2 1 1 1 1 0 0 0 0 
0 0 0 0 0 0 0 0 0 
0 0 0 0 0 0 0 0 0 
0 0 0 2 2 2 2 1 1 
2 2 2 2 1 1 2 2 2 
2 1 1 2 1 1 1 1 1 
2 2 2 2 2 2 1 1 1 
1 1 2 2 1 1 1 1 1 
2 1 1 1 1 1 2 1 1 
1 2 2 2 1 1 1 1 2 
2 2 1 1 1 1 1 2 2 
2 1 1 1 1 1 0 0 0 
0 0 0 0 0 0 0 0 0 
0 0 0 0 0 0 0 0 0 
0 0 0 0 2 2 2 2 1 
1 2 2 2 2 1 1 2 2 
2 2 1 2 2 2 1 1 1 
1 2 2 2 2 2 2 1 1 
1 1 1 1 1 1 1 1 1 
1 2 1 1 1 2 2 2 2 
1 1 2 2 1 1 1 1 1 
2 2 2 1 1 1 1 1 1 
2 1 1 1 1 1 1 0 0 
0 0 0 0 0 0 0 0 0 
0 0 0 0 0 0 0 0 0 
0 0 0 0 0 2 2 2 2 
1 1 2 2 2 2 1 1 2 
2 2 2 1 2 2 2 1 1 
1 1 1 1 1 1 1 1 1 
1 1 1 1 2 1 1 1 1 
1 2 2 1 1 1 2 2 2 
2 1 1 2 2 1 1 1 1 
1 2 2 2 1 1 1 1 1 
1 2 1 1 1 1 1 1 0 
0 0 0 0 0 0 0 0 0 
0 0 0 0 0 0 0 0 0 
0 0 0 0 0 0 2 2 2 
2 2 2 2 2 2 2 1 1 
1 1 1 1 1 2 2 2 1 
1 1 2 2 2 1 1 1 1 
2 1 1 1 1 2 1 1 1 
1 2 2 2 1 1 1 2 2 
2 2 1 1 1 1 1 1 1 
1 1 2 2 2 1 1 1 1 
1 1 2 1 1 1 1 1 1 
0 0 0 0 0 0 0 0 0 
0 0 0 0 0 0 0 0 0 
0 0 0 0 0 0 0 1 1 
1 1 1 1 1 1 1 1 2 
2 2 2 1 1 1 2 2 2 
1 1 2 2 2 2 1 1 1 
1 2 2 2 2 2 2 1 1 
1 2 2 2 2 1 1 1 2 
2 2 2 1 1 2 2 2 2 
2 2 2 1 1 1 2 2 2 
2 2 1 2 2 2 2 2 2 
2 0 0 0 0 0 0 0 0 
0 0 0 0 0 0 0 0 0 
0 0 0 0 0 0 0 0 2 
2 2 2 2 1 1 1 1 1 
2 2 2 2 1 1 1 2 2 
2 1 1 2 2 2 2 1 1 
1 1 2 2 2 2 2 2 1 
1 2 2 2 2 2 1 1 1 
2 2 2 2 1 1 2 2 2 
2 2 2 1 1 1 1 2 2 
2 2 2 1 2 2 2 2 2 
2 2 0 0 0 0 0 0 0 
0 0 0 0 0 0 0 0 0 
0 0 0 0 0 0 0 0 0 
2 2 2 2 2 1 1 1 1 
1 2 2 2 2 1 1 1 2 
2 2 1 1 2 2 2 2 1 
1 1 1 2 2 2 2 2 2 
1 1 2 2 2 2 2 1 1 
1 1 1 1 1 1 1 2 2 
2 2 2 2 1 1 1 1 2 
2 2 2 2 2 2 2 2 2 
2 2 2 0 0 0 0 0 0 
0 0 0 0 0 0 0 0 0 
0 0 0 0 0 0 0 0 0 
0 2 2 2 2 2 2 1 1 
1 1 2 2 2 2 1 1 1 
1 2 2 2 2 2 2 2 2 
1 1 1 1 2 2 2 2 2 
2 2 2 2 2 2 2 2 2 
2 2 2 2 2 1 1 1 2 
2 2 2 2 1 1 1 1 1 
2 2 2 2 2 1 1 1 2 
2 2 2 2 0 0 0 0 0 
0 0 0 0 0 0 0 0 0 
0 0 0 0 0 0 0 0 0 
0 0 2 2 2 2 2 2 1 
1 1 1 2 2 2 2 1 1 
1 1 2 2 1 1 2 2 2 
1 1 2 2 2 1 1 1 1 
1 1 1 1 1 1 1 1 1 
1 2 2 2 2 2 2 2 2 
2 2 2 2 2 1 1 1 1 
1 1 1 2 2 2 1 1 1 
1 1 1 1 1 0 0 0 0 
0 0 0 0 0 0 0 0 0 
0 0 0 0 0 0 0 0 0 
0 0 0 2 2 2 2 2 2 
1 1 1 1 2 2 2 2 1 
1 1 1 1 1 1 1 1 1 
1 2 2 2 2 2 1 1 1 
1 2 2 2 1 1 1 1 1 
1 1 2 2 2 2 2 2 1 
1 1 1 1 1 1 1 1 1 
2 2 2 2 2 1 1 1 1 
1 1 1 1 1 1 0 0 0 
0 0 0 0 0 0 0 0 0 
0 0 0 0 0 0 0 0 0 
0 0 0 0 1 1 1 1 1 
1 2 2 2 2 1 2 2 2 
2 2 2 2 2 2 1 1 1 
1 1 2 2 2 2 2 1 1 
1 2 2 2 2 1 1 1 1 
1 1 1 2 2 2 2 2 1 
1 1 1 1 1 2 2 2 2 
1 2 2 2 2 2 1 1 1 
1 1 1 1 1 1 1 0 0 
0 0 0 0 0 0 0 0 0 
0 0 0 0 0 0 0 0 0 
0 0 0 0 0 1 1 1 1 
1 1 2 2 2 2 1 1 1 
1 1 1 2 2 2 2 1 1 
1 1 1 2 2 2 2 2 1 
1 1 2 2 2 2 1 1 2 
2 2 2 2 2 2 2 2 1 
1 1 1 1 1 1 2 2 2 
2 2 1 2 2 2 2 2 2 
2 2 2 2 2 2 2 2 0 
0 0 0 0 0 0 0 0 0 
0 0 0 0 0 0 0 0 0 
0 0 0 0 0 0 1 1 1 
1 1 1 2 2 2 2 1 1 
1 1 1 1 2 2 2 2 1 
1 1 1 1 2 2 2 2 2 
1 1 1 2 2 2 2 1 1 
2 2 2 2 1 1 1 1 2 
1 1 1 1 1 1 2 2 2 
2 2 2 1 2 2 2 1 2 
2 2 2 1 1 2 2 2 2 
0 0 0 0 0 0 0 0 0 
0 0 0 0 0 0 0 0 0 
0 0 0 0 0 0 0 1 1 
1 1 1 2 2 2 2 2 1 
1 1 1 1 1 2 2 2 2 
1 1 1 1 1 1 2 2 2 
1 1 1 1 2 2 2 2 1 
1 2 2 2 2 1 1 1 2 
2 2 2 1 2 2 2 1 1 
2 2 2 2 1 1 1 1 1 
2 2 2 2 1 1 2 2 2 
2 0 0 0 0 0 0 0 0 
0 0 0 0 0 0 0 0 0 
0 0 0 0 0 0 0 0 1 
1 1 1 2 2 2 1 1 1 
1 1 1 1 1 1 2 2 2 
2 1 2 2 2 2 2 1 1 
2 1 1 1 1 2 2 2 2 
2 2 2 2 2 2 1 1 1 
2 2 2 2 1 2 2 2 1 
1 1 2 2 2 1 1 1 1 
1 2 2 2 2 1 1 2 2 
2 2 0 0 0 0 0 0 0 
0 0 0 0 0 0 0 0 0 
0 0 0 0 0 0 0 0 0 
2 2 2 2 2 2 1 1 1 
1 2 2 1 1 1 1 2 2 
2 2 2 2 2 2 2 2 1 
1 2 2 2 2 2 1 1 1 
1 1 1 2 2 2 2 1 1 
1 2 2 2 2 1 2 2 2 
1 1 1 1 2 2 1 1 1 
1 1 2 2 2 2 1 1 2 
2 2 2 0 0 0 0 0 0 
0 0 0 0 0 0 0 0 0 
0 0 0 0 0 0 0 0 0 
0 2 2 2 2 2 1 1 1 
1 1 2 2 2 2 2 1 2 
2 2 1 1 2 2 2 2 2 
1 1 2 2 2 2 2 1 1 
1 1 1 1 1 2 1 1 1 
1 1 2 2 2 2 1 2 2 
2 1 1 1 1 1 2 1 1 
1 1 1 2 2 2 2 1 1 
2 2 2 2 0 0 0 0 0 
0 0 0 0 0 0 0 0 0 
0 0 0 0 0 0 0 0 0 
0 0 1 1 1 1 1 1 1 
1 1 1 2 2 2 2 2 2 
1 1 1 1 1 1 1 1 2 
1 1 1 2 2 2 2 2 1 
1 1 1 1 1 1 2 1 1 
1 1 1 2 2 2 2 2 2 
2 2 2 1 1 1 1 2 1 
1 1 1 1 2 2 2 1 1 
1 2 2 2 2 0 0 0 0 
0 0 0 0 0 0 0 0 0 
0 0 0 0 0 0 0 0 0 
0 0 0 1 1 1 1 2 1 
1 1 1 1 2 2 2 2 2 
2 1 1 1 1 1 2 2 2 
2 1 1 1 2 2 2 2 1 
1 1 1 2 2 2 2 2 2 
2 1 1 1 1 1 2 1 1 
2 2 2 2 2 2 1 2 2 
2 2 2 2 2 1 1 1 1 
1 1 2 1 1 1 0 0 0 
0 0 0 0 0 0 0 0 0 
0 0 0 0 0 0 0 0 0 
0 0 0 0 1 1 1 1 2 
2 2 2 2 1 1 1 1 1 
2 2 1 1 1 1 2 2 2 
2 2 1 1 1 2 1 1 1 
1 1 1 2 2 2 2 2 2 
2 2 1 1 2 2 2 2 1 
1 1 1 1 1 1 1 1 2 
2 2 2 2 2 2 1 1 1 
1 1 1 1 1 1 1 0 0 
0 0 0 0 0 0 0 0 0 
0 0 0 0 0 0 0 0 0 
0 0 0 0 0 1 1 1 1 
2 2 2 2 2 1 1 1 1 
1 2 2 1 1 1 1 2 2 
2 2 2 1 1 1 2 2 2 
2 2 2 2 2 2 2 2 2 
2 2 2 2 2 2 2 2 2 
2 1 1 1 1 1 1 1 1 
2 2 2 2 2 2 2 2 2 
2 2 2 2 1 1 1 1 0 
0 0 0 0 0 0 0 0 0 
0 0 0 0 0 0 0 0 0 
0 0 0 0 0 0 1 1 1 
1 2 2 2 2 2 1 1 1 
1 1 2 2 1 1 1 1 2 
2 2 2 2 1 1 1 2 2 
2 2 2 1 1 1 1 1 1 
1 1 1 1 1 1 2 2 2 
2 2 2 2 2 2 1 1 1 
1 1 2 2 2 2 2 2 1 
1 2 2 2 2 1 1 1 1 
0 0 0 0 0 0 0 0 0 
0 0 0 0 0 0 0 0 0 
0 0 0 0 0 0 0 1 1 
1 1 2 2 2 2 2 1 1 
1 1 2 2 2 1 1 1 1 
2 2 2 2 2 1 1 1 2 
2 2 2 2 1 1 1 1 1 
2 2 2 2 1 1 1 2 2 
2 2 2 1 1 2 2 2 1 
1 1 1 2 1 1 1 1 1 
1 1 2 2 2 2 1 1 1 
1 0 0 0 0 0 0 0 0 
0 0 0 0 0 0 0 0 0 
0 0 0 0 0 0 0 0 0 
1 1 1 2 2 2 2 2 2 
2 2 1 2 2 1 1 2 2 
2 2 1 1 1 1 1 1 1 
2 2 2 2 2 1 1 1 1 
1 2 2 2 2 1 1 1 2 
2 2 2 1 1 1 2 2 2 
2 1 1 2 2 2 2 2 1 
1 1 1 2 2 2 2 1 1 
1 0 0 0 0 0 0 0 0 
0 0 0 0 0 0 0 0 0 
0 0 0 0 0 0 0 0 0 
0 0 1 2 2 2 2 2 2 
2 1 1 1 1 1 1 1 1 
2 2 2 1 1 2 2 2 2 
2 2 2 2 2 2 1 1 1 
1 2 2 2 2 2 1 1 1 
1 2 2 1 1 1 1 2 2 
2 2 2 2 2 2 2 2 2 
1 1 1 1 2 2 2 2 1 
1 0 0 0 0 0 0 0 0 
0 0 0 0 0 0 0 0 0 
0 0 0 0 0 0 0 0 0 
0 0 0 0 1 1 1 1 1 
1 1 1 1 1 1 2 1 1 
1 2 2 2 2 2 2 2 2 
2 2 1 1 1 2 1 1 1 
1 1 2 2 2 2 2 1 1 
1 1 1 2 1 1 1 1 2 
2 2 2 1 1 2 2 2 2 
2 1 1 1 1 1 2 2 2 
1 0 0 0 0 0 0 0 0 
0 0 0 0 0 0 0 0 0 
0 0 0 0 0 0 0 0 0 
0 0 0 0 0 0 1 1 1 
1 1 1 1 1 1 1 2 1 
1 1 2 2 2 2 1 2 2 
2 2 2 1 1 1 2 2 2 
2 2 2 2 2 2 2 2 1 
1 1 1 1 2 1 1 1 1 
1 2 2 2 1 1 2 2 2 
2 2 1 1 1 1 1 2 2 
2 0 0 0 0 0 0 0 0 
0 0 0 0 0 0 0 0 0 
0 0 0 0 0 0 0 0 0 
0 0 0 0 0 0 0 0 1 
1 1 1 2 1 1 1 1 2 
1 1 1 2 2 2 2 1 2 
2 2 2 2 1 1 1 2 2 
2 2 1 1 1 1 1 1 2 
2 2 2 2 1 2 2 2 1 
1 1 1 2 2 1 1 1 2 
2 2 2 1 1 1 1 1 1 
2 0 0 0 0 0 0 0 0 
0 0 0 0 0 0 0 0 0 
0 0 0 0 0 0 0 0 0 
0 0 0 0 0 0 0 0 0 
0 1 1 1 2 2 2 2 2 
2 1 1 1 2 2 2 2 1 
1 1 1 1 1 1 1 1 2 
2 2 2 1 1 1 1 1 1 
2 2 2 2 2 1 2 2 2 
2 2 1 1 1 2 1 1 1 
1 1 1 2 2 2 2 2 2 
1 0 0 0 0 0 0 0 0 
0 0 0 0 0 0 0 0 0 
0 0 0 0 0 0 0 0 0 
0 0 0 0 0 0 0 0 0 
0 0 0 1 1 2 2 2 2 
2 2 2 1 2 2 2 2 2 
1 1 1 1 1 1 1 1 1 
2 2 2 2 1 1 1 1 1 
1 2 2 2 2 2 1 2 2 
2 2 2 1 1 1 2 1 1 
1 1 1 1 2 2 2 2 2 
2 0 0 0 0 0 0 0 0 
0 0 0 0 0 0 0 0 0 
0 0 0 0 0 0 0 0 0 
0 0 0 0 0 0 0 0 0 
0 0 0 0 0 1 2 2 2 
2 2 2 2 1 1 1 1 1 
2 1 1 1 2 2 2 2 2 
2 2 2 2 2 1 2 2 2 
2 2 2 2 2 2 2 2 2 
2 2 2 2 2 2 2 2 2 
2 2 1 1 1 2 2 2 2 
2 0 0 0 0 0 0 0 0 
0 0 0 0 0 0 0 0 0 
0 0 0 0 0 0 0 0 0 
0 0 0 0 0 0 0 0 0 
0 0 0 0 0 0 0 2 2 
2 2 2 2 2 1 1 1 1 
1 2 1 1 1 2 2 2 2 
2 1 1 2 2 2 1 2 2 
2 2 2 1 2 2 2 1 1 
2 2 2 2 2 1 1 2 2 
2 2 2 2 1 1 2 2 2 
2 0 0 0 0 0 0 0 0 
0 0 0 0 0 0 0 0 0 
0 0 0 0 0 0 0 0 0 
0 0 0 0 0 0 0 0 0 
0 0 0 0 0 0 0 0 0 
2 1 1 1 1 1 1 1 2 
2 2 2 2 2 2 2 2 2 
2 2 1 1 1 2 1 1 2 
2 2 2 2 1 1 1 1 1 
1 2 1 1 1 1 1 1 1 
2 2 2 2 2 1 1 2 2 
2 0 0 0 0 0 0 0 0 
0 0 0 0 0 0 0 0 0 
0 0 0 0 0 0 0 0 0 
0 0 0 0 0 0 0 0 0 
0 0 0 0 0 0 0 0 0 
0 0 1 1 1 1 1 1 2 
2 2 2 2 2 2 2 1 2 
2 2 2 1 1 1 2 1 1 
2 2 2 2 2 1 1 1 1 
1 2 2 2 2 1 1 1 1 
1 2 2 2 2 2 1 1 2 
2 0 0 0 0 0 0 0 0 
0 0 0 0 0 0 0 0 0 
0 0 0 0 0 0 0 0 0 
0 0 0 0 0 0 0 0 0 
0 0 0 0 0 0 0 0 0 
0 0 0 0 1 1 1 1 1 
2 2 2 2 2 2 2 2 1 
1 1 1 1 1 2 2 2 1 
1 1 1 2 1 1 1 1 1 
1 1 2 2 2 2 1 1 1 
1 1 1 1 1 2 2 2 1 
2 0 0 0 0 0 0 0 0 
0 0 0 0 0 0 0 0 0 
0 0 0 0 0 0 0 0 0 
0 0 0 0 0 0 0 0 0 
0 0 0 0 0 0 0 0 0 
0 0 0 0 0 0 1 1 1 
1 2 1 1 1 1 1 2 2 
1 1 1 1 2 2 2 2 2 
1 2 2 2 2 1 2 2 2 
2 1 1 2 2 2 2 1 1 
2 2 2 2 2 2 2 2 2 
0 0 0 0 0 0 0 0 0 
0 0 0 0 0 0 0 0 0 
0 0 0 0 0 0 0 0 0 
0 0 0 0 0 0 0 0 0 
0 0 0 0 0 0 0 0 0 
0 0 0 0 0 0 0 0 0 
0 0 1 1 1 1 1 1 1 
2 1 1 1 1 2 2 2 2 
2 1 2 2 2 2 1 2 2 
2 2 2 1 2 2 2 2 1 
1 2 2 2 2 2 2 0 0 
0 0 0 0 0 0 0 0 0 
0 0 0 0 0 0 0 0 0 
0 0 0 0 0 0 0 0 0 
0 0 0 0 0 0 0 0 0 
0 0 0 0 0 0 0 0 0 
0 0 0 0 0 0 0 0 0 
0 0 0 0 1 1 1 1 1 
1 2 1 1 1 2 2 2 2 
2 2 2 2 2 2 2 1 2 
2 2 2 2 1 2 2 2 2 
1 2 2 2 2 2 2 0 0 
0 0 0 0 0 0 0 0 0 
0 0 0 0 0 0 0 0 0 
0 0 0 0 0 0 0 0 0 
0 0 0 0 0 0 0 0 0 
0 0 0 0 0 0 0 0 0 
0 0 0 0 0 0 0 0 0 
0 0 0 0 0 0 1 1 1 
1 1 2 1 1 1 2 2 2 
2 2 2 2 2 2 2 2 2 
2 2 2 2 2 2 2 2 2 
2 1 2 2 2 2 2 0 0 
0 0 0 0 0 0 0 0 0 
0 0 0 0 0 0 0 0 0 
0 0 0 0 0 0 0 0 0 
0 0 0 0 0 0 0 0 0 
0 0 0 0 0 0 0 0 0 
0 0 0 0 0 0 0 0 0 
0 0 0 0 0 0 0 0 0 
0 0 0 0 0 0 0 0 0 
0 0 0 0 0 0 0 0 0 
0 0 0 0 0 0 0 0 0 
0 0 0 0 0 0 0 0 0 
0 0 0 0 0 0 0 0 0 
0 0 0 0 0 0 0 0 0 
0 0 0 0 0 0 0 0 0 
0 0 0 0 0 0 0 0 0 
0 0 0 0 0 0 0 0 0 
0 0 0 0 0 0 0 0 0 
0 0 0 0 0 0 0 0 0 
0 0 0 0 0 0 0 0 0 
0 0 0 0 0 0 0 0 0 
0 0 0 0 0 0 0 0 0 
0 0 0 0 0 0 0 0 0 
0 0 0 0 0 0 0 0 0 
0 0 0 0 0 0 0 0 0 
0 0 0 0 0 0 0 0 0 
0 0 0 0 0 0 0 0 0 
0 0 0 0 0 0 0 0 0 
0 0 0 0 0 0 0 0 0 
0 0 0 0 0 0 0 0 0 
0 0 0 0 0 0 0 0 0 
0 0 0 0 0 0 0 0 0 
0 0 0 0 0 0 0 0 0 
0 0 0 0 0 0 0 0 0 
0 0 0 0 0 0 0 0 0 
0 0 0 0 0 0 0 0 0 
0 0 0 0 0 0 0 0 0 
0 0 0 0 0 0 0 0 0 
0 0 0 0 0 0 0 0 0 
0 0 0 0 0 0 0 0 0 
0 0 0 0 0 0 0 0 0 
0 0 0 0 0 0 0 0 0 
0 0 0 0 0 0 0 0 0 
0 0 0 0 0 0 0 0 0 
0 0 0 0 0 0 0 0 0 
0 0 0 0 0 0 0 0 0 
0 0 0 0 0 0 0 0 0 
0 0 0 0 0 0 0 0 0 
0 0 0 0 0 0 0 0 0 
0 0 0 0 0 0 0 0 0 
0 0 0 0 0 0 0 0 0 
0 0 0 0 0 0 0 0 0 
0 0 0 0 0 0 0 0 0 
0 0 0 0 0 0 0 0 0 
0 0 0 0 0 0 0 0 0 
0 0 0 0 0 0 0 0 0 
0 0 0 0 0 0 0 0 0 
0 0 0 0 0 0 0 0 0 
0 0 0 0 0 0 0 0 0 
0 0 0 0 0 0 0 0 0 
0 0 0 0 0 0 0 0 0 
0 0 0 0 0 0 0 0 0 
0 0 0 0 0 0 0 0 0 
0 0 0 0 0 0 0 0 0 
0 0 0 0 0 0 0 0 0 
0 0 0 0 0 0 0 0 0 
0 0 0 0 0 0 0 0 0 
0 0 0 0 0 0 0 0 0 
0 0 0 0 0 0 0 0 0 
0 0 0 0 0 0 0 0 0 
0 0 0 0 0 0 0 0 0 
0 0 0 0 0 0 0 0 0 
0 0 0 0 0 0 0 0 0 
0 0 0 0 0 0 0 0 0 
0 0 0 0 0 0 0 0 0 
0 0 0 0 0 0 0 0 0 
0 0 0 0 0 0 0 0 0 
0 0 0 0 0 0 0 0 0 
0 0 0 0 0 0 0 0 0 
0 0 0 0 0 0 0 0 0 
0 0 0 0 0 0 0 0 0 
0 0 0 0 0 0 0 0 0 
0 0 0 0 0 0 0 0 0 
0 0 0 0 0 0 0 0 0 
0 0 0 0 0 0 0 0 0 
0 0 0 0 0 0 0 0 0 
0 0 0 0 0 0 0 0 0 
0 0 0 0 0 0 0 0 0 
0 0 0 0 0 0 0 0 0 
0 0 0 0 0 0 0 0 0 
0 0 0 0 0 0 0 0 0 
0 0 0 0 0 0 0 0 0 
0 0 0 0 0 0 0 0 0 
0 0 0 0 0 0 0 0 0 
0 0 0 0 0 0 0 0 0 
0 0 0 0 0 0 0 0 0 
0 0 0 0 0 0 0 0 0 
0 0 0 0 0 0 0 0 0 
0 0 0 0 0 0 0 0 0 
0 0 0 0 0 0 0 0 0 
0 0 0 0 0 0 0 0 0 
0 0 0 0 0 0 0 0 0 
0 0 0 0 0 0 0 0 0 
0 0 0 0 0 0 0 0 0 
0 0 0 0 0 0 0 0 0 
0 0 0 0 0 0 0 0 0 
0 0 0 0 0 0 0 0 0 
0 0 0 0 0 0 0 0 0 
0 0 0 0 0 0 0 0 0 
0 0 0 0 0 0 0 0 0 
0 0 0 0 0 0 0 0 0 
0 0 0 0 0 0 0 0 0 
0 0 0 0 0 0 0 0 0 
0 0 0 0 0 0 0 0 0 
0 0 0 0 0 0 0 0 0 
0 
CellId 1 10000 long
0 0 0 0 0 0 0 0 0 
0 0 0 0 0 0 0 0 0 
0 0 0 0 0 0 0 0 0 
0 0 0 0 0 0 0 0 0 
0 0 0 0 0 0 0 0 0 
0 0 0 0 0 0 0 0 0 
0 0 0 0 0 0 0 0 0 
0 0 0 0 0 0 0 0 0 
0 0 0 0 0 0 0 0 0 
0 0 0 0 0 0 0 0 0 
0 0 0 0 0 0 0 0 0 
0 0 0 0 0 0 0 0 0 
0 0 0 0 0 0 0 0 0 
0 0 0 0 0 0 0 0 0 
0 0 0 0 0 0 0 0 0 
0 0 0 0 0 0 0 0 0 
0 0 0 0 0 0 0 0 0 
0 0 0 0 0 0 0 0 0 
0 0 0 0 0 0 0 0 0 
0 0 0 0 0 0 0 0 0 
0 0 0 0 0 0 0 0 0 
0 0 0 0 0 0 0 0 0 
0 0 0 0 0 0 0 0 0 
0 0 0 0 0 0 0 0 0 
0 0 0 0 0 0 0 0 0 
0 0 0 0 0 0 0 0 0 
0 0 0 0 0 0 0 0 0 
0 0 0 0 0 0 0 0 0 
0 0 0 0 0 0 0 0 0 
0 0 0 0 0 0 0 0 0 
0 0 0 0 0 0 0 0 0 
0 0 0 0 0 0 0 0 0 
0 0 0 0 0 0 0 0 0 
0 0 0 0 0 0 0 0 0 
0 0 0 0 0 0 0 0 0 
0 0 0 0 0 0 0 0 0 
0 0 0 0 0 0 0 0 0 
0 0 0 0 0 0 0 0 0 
0 0 0 0 0 0 0 0 0 
0 0 0 0 0 0 0 0 0 
0 0 0 0 0 0 0 0 0 
0 0 0 0 0 0 0 0 0 
0 0 0 0 0 0 0 0 0 
0 0 0 0 0 0 0 0 0 
0 0 0 0 0 0 0 0 0 
0 0 0 0 0 0 0 0 0 
0 0 0 0 0 0 0 0 0 
0 0 0 0 0 0 0 0 0 
0 0 0 0 0 0 0 0 0 
0 0 0 0 0 0 0 0 0 
0 0 0 0 0 0 0 0 0 
0 0 0 0 0 0 0 0 0 
0 0 0 0 0 0 0 0 0 
0 0 0 0 0 0 0 0 0 
0 0 0 0 0 0 0 0 0 
0 0 0 0 0 0 0 0 0 
0 0 0 0 0 0 0 0 0 
0 0 0 0 0 0 0 0 0 
0 0 0 0 0 0 0 0 0 
0 0 0 0 0 0 0 0 0 
0 0 0 0 0 0 0 0 0 
0 0 0 0 0 0 0 0 0 
0 0 0 0 0 0 0 0 0 
0 0 0 0 0 0 0 0 0 
0 0 0 0 0 0 0 0 0 
0 0 0 0 0 0 0 0 0 
0 0 0 0 0 0 0 0 0 
0 0 0 0 0 0 0 0 0 
0 0 0 0 0 0 0 0 0 
0 0 0 0 0 0 0 0 0 
0 0 0 0 0 0 0 0 0 
0 0 0 0 0 0 0 0 0 
0 0 0 0 0 0 0 0 0 
0 0 0 0 0 0 0 0 0 
0 0 0 0 0 0 0 0 0 
0 0 0 0 0 0 0 0 0 
0 0 0 0 0 0 0 0 0 
0 0 0 0 0 0 0 0 0 
0 0 0 0 0 0 0 0 0 
0 0 0 0 0 0 0 0 0 
0 0 0 0 0 0 0 0 0 
0 0 0 0 0 0 0 0 0 
0 0 0 0 0 0 0 0 0 
0 0 0 0 0 0 0 0 0 
0 0 0 0 0 0 0 0 0 
0 0 0 0 0 0 0 0 0 
0 0 0 0 0 0 0 0 0 
0 0 0 0 0 0 0 0 0 
0 0 0 0 0 0 0 0 0 
0 0 0 0 0 0 0 0 0 
0 0 0 0 0 0 0 0 0 
0 0 0 0 0 0 0 0 0 
0 0 0 0 0 0 0 0 0 
0 0 0 0 0 0 0 0 0 
0 0 0 0 0 0 0 0 0 
0 0 0 0 0 0 0 0 0 
0 0 0 0 0 0 0 0 0 
0 0 0 0 0 0 0 0 0 
0 0 0 0 0 0 0 0 0 
0 0 0 0 0 0 0 0 0 
0 0 0 0 0 0 0 0 0 
0 0 0 0 0 0 0 0 0 
0 0 0 0 0 0 0 0 0 
0 0 0 0 0 0 0 0 0 
0 0 0 0 0 0 0 0 0 
0 0 0 0 0 0 0 0 0 
0 0 0 0 0 0 0 0 0 
0 0 0 0 0 0 0 0 0 
0 0 0 0 0 0 0 0 0 
0 0 0 0 0 0 0 0 0 
0 0 0 0 0 0 0 0 0 
0 0 0 0 0 0 0 0 0 
0 0 0 0 0 0 0 0 0 
0 0 0 0 0 0 0 0 0 
0 0 0 0 0 0 0 0 0 
0 0 0 0 0 0 0 0 0 
0 0 0 0 0 0 0 0 0 
0 0 0 0 0 0 0 0 0 
0 0 0 0 0 0 0 0 0 
0 0 0 0 0 0 0 0 0 
0 0 0 0 0 0 0 0 0 
0 0 0 0 0 0 0 0 0 
0 0 0 0 0 0 0 0 0 
0 0 0 0 0 0 0 0 0 
0 0 0 0 0 0 0 0 0 
0 0 0 0 0 0 0 0 0 
0 0 0 0 0 0 0 0 0 
0 0 0 0 0 0 0 0 0 
0 0 0 0 0 0 0 0 0 
0 0 0 0 0 0 0 0 0 
0 0 0 0 0 0 0 0 0 
0 0 0 0 0 0 0 0 0 
0 0 0 0 0 0 0 0 0 
0 0 0 0 0 0 0 0 0 
0 0 0 0 0 0 0 0 0 
0 0 0 0 0 0 0 0 0 
0 0 0 0 0 0 0 0 0 
0 0 0 0 0 0 0 0 0 
0 0 0 0 0 0 0 0 0 
0 0 0 0 0 0 0 0 0 
0 0 0 0 0 0 0 0 0 
0 0 0 0 0 0 0 0 0 
0 0 0 0 0 0 0 0 0 
0 0 0 0 0 0 0 0 0 
0 0 0 0 0 0 0 0 0 
0 0 0 0 0 0 0 0 0 
0 0 0 0 0 0 0 0 0 
0 0 0 0 0 0 0 0 0 
0 0 0 0 0 0 0 0 0 
0 0 0 0 0 0 0 0 0 
0 0 0 0 0 0 0 0 0 
0 0 0 0 0 0 0 0 0 
0 0 0 0 0 0 0 0 0 
0 0 0 0 0 0 0 0 0 
0 0 0 0 0 0 0 0 0 
0 0 0 0 0 0 0 0 0 
0 0 0 0 0 0 0 0 0 
0 0 0 0 0 0 0 0 0 
0 0 0 0 0 0 0 0 0 
0 0 0 0 0 0 0 0 0 
0 0 0 0 0 0 0 0 0 
0 0 0 0 0 0 0 0 0 
0 0 0 0 0 0 0 0 0 
0 0 0 0 0 0 0 0 0 
0 0 0 0 0 0 0 0 0 
0 0 0 0 0 0 0 0 0 
0 0 0 0 0 0 0 0 0 
0 0 0 0 0 0 0 0 0 
0 0 0 0 0 0 0 0 0 
0 0 0 0 0 0 0 0 0 
0 1 1 1 10 10 10 2 2 
2 2 2 3 3 3 12 12 12 
12 12 4 4 4 5 5 5 5 
5 15 15 15 15 6 6 6 6 
16 16 16 7 7 7 7 7 0 
0 0 0 0 0 0 0 0 0 
0 0 0 0 0 0 0 0 0 
0 0 0 0 0 0 0 0 0 
0 0 0 0 0 0 0 0 0 
0 0 0 0 0 0 0 0 0 
0 0 0 0 0 0 0 0 0 
0 1 1 1 1 10 10 10 2 
2 2 2 2 3 3 3 12 12 
12 12 12 4 4 4 5 5 5 
5 5 15 15 15 15 6 6 6 
6 16 16 16 7 7 7 7 7 
7 0 0 0 0 0 0 0 0 
0 0 0 0 0 0 0 0 0 
0 0 0 0 0 0 0 0 0 
0 0 0 0 0 0 0 0 0 
0 0 0 0 0 0 0 0 0 
0 0 0 0 0 0 0 0 0 
0 9 1 1 1 1 10 10 10 
2 2 2 2 2 3 3 3 12 
12 12 12 12 4 4 4 4 5 
5 5 5 15 15 15 15 6 6 
6 6 16 16 16 7 7 7 7 
7 7 17 0 0 0 0 0 0 
0 0 0 0 0 0 0 0 0 
0 0 0 0 0 0 0 0 0 
0 0 0 0 0 0 0 0 0 
0 0 0 0 0 0 0 0 0 
0 0 0 0 0 0 0 0 0 
0 9 9 9 1 1 1 10 10 
10 2 2 2 2 2 3 3 3 
12 12 12 12 12 4 4 4 4 
4 5 5 5 15 15 15 15 6 
6 6 6 16 16 16 7 7 7 
7 17 17 17 17 0 0 0 0 
0 0 0 0 0 0 0 0 0 
0 0 0 0 0 0 0 0 0 
0 0 0 0 0 0 0 0 0 
0 0 0 0 0 0 0 0 0 
0 0 0 0 0 0 0 0 0 
0 9 9 9 9 1 1 1 10 
10 10 2 2 2 2 3 3 3 
3 12 12 12 12 12 4 4 4 
4 4 4 5 5 15 15 15 15 
6 6 6 6 16 16 16 7 7 
7 17 17 17 17 17 17 0 0 
0 0 0 0 0 0 0 0 0 
0 0 0 0 0 0 0 0 0 
0 0 0 0 0 0 0 0 0 
0 0 0 0 0 0 0 0 0 
0 0 0 0 0 0 0 0 0 
0 9 9 9 9 9 1 1 1 
10 10 10 10 2 2 3 3 3 
3 3 12 12 24 24 24 13 13 
13 4 4 4 5 5 15 15 15 
15 6 6 6 6 16 16 16 16 
7 7 17 17 17 17 17 18 18 
0 0 0 0 0 0 0 0 0 
0 0 0 0 0 0 0 0 0 
0 0 0 0 0 0 0 0 0 
0 0 0 0 0 0 0 0 0 
0 0 0 0 0 0 0 0 0 
0 9 9 9 9 9 9 1 1 
1 10 10 10 10 10 3 3 3 
3 3 3 12 12 24 24 24 13 
13 13 13 4 4 4 15 15 15 
15 6 6 6 6 6 16 16 16 
16 16 17 17 17 17 17 18 18 
18 18 0 0 0 0 0 0 0 
0 0 0 0 0 0 0 0 0 
0 0 0 0 0 0 0 0 0 
0 0 0 0 0 0 0 0 0 
0 0 0 0 0 0 0 0 0 
0 8 8 9 9 9 9 9 1 
1 1 1 11 11 11 11 11 11 
11 11 11 11 24 24 24 24 24 
13 13 13 13 13 4 14 14 14 
14 27 27 27 27 27 6 16 16 
16 16 29 29 17 17 17 17 18 
18 18 18 18 0 0 0 0 0 
0 0 0 0 0 0 0 0 0 
0 0 0 0 0 0 0 0 0 
0 0 0 0 0 0 0 0 0 
0 0 0 0 0 0 0 0 0 
0 19 8 8 8 8 8 8 8 
21 21 21 21 21 11 11 11 11 
11 11 11 11 11 24 24 24 24 
24 13 13 13 13 13 26 14 14 
14 14 27 27 27 27 27 27 28 
28 28 16 29 29 29 29 29 17 
18 18 18 18 18 18 0 0 0 
0 0 0 0 0 0 0 0 0 
0 0 0 0 0 0 0 0 0 
0 0 0 0 0 0 0 0 0 
0 0 0 0 0 0 0 0 0 
0 19 19 8 8 8 8 8 8 
8 21 21 21 21 21 21 11 11 
11 11 11 11 11 11 24 24 24 
24 24 13 13 13 13 13 26 14 
14 14 14 27 27 27 27 27 27 
28 28 28 42 29 29 29 29 29 
30 18 18 18 18 18 18 18 0 
0 0 0 0 0 0 0 0 0 
0 0 0 0 0 0 0 0 0 
0 0 0 0 0 0 0 0 0 
0 0 0 0 0 0 0 0 0 
0 19 19 19 8 8 8 8 8 
8 8 21 21 21 21 21 21 21 
22 22 22 22 22 22 24 24 24 
24 24 24 24 26 26 26 26 26 
14 14 14 14 27 27 27 27 27 
27 28 28 28 42 42 29 29 29 
29 30 30 30 30 30 18 18 31 
31 0 0 0 0 0 0 0 0 
0 0 0 0 0 0 0 0 0 
0 0 0 0 0 0 0 0 0 
0 0 0 0 0 0 0 0 0 
0 19 19 19 19 8 8 8 8 
8 8 8 21 21 21 21 21 23 
23 23 22 22 22 22 22 25 25 
25 25 25 25 25 26 26 26 26 
26 14 14 14 14 14 27 27 27 
27 28 28 28 28 42 42 42 29 
29 29 30 30 30 30 30 30 31 
31 31 31 0 0 0 0 0 0 
0 0 0 0 0 0 0 0 0 
0 0 0 0 0 0 0 0 0 
0 0 0 0 0 0 0 0 0 
0 19 19 19 19 19 8 20 20 
20 20 20 20 21 21 21 21 23 
23 23 23 22 22 22 22 22 25 
25 25 25 25 25 25 26 26 26 
26 26 14 14 14 14 14 14 14 
14 28 28 28 28 28 42 42 42 
29 29 29 30 30 30 30 30 44 
44 31 31 31 31 0 0 0 0 
0 0 0 0 0 0 0 0 0 
0 0 0 0 0 0 0 0 0 
0 0 0 0 0 0 0 0 0 
0 19 19 19 19 19 19 20 20 
20 20 20 20 48 48 48 21 21 
23 23 23 23 22 22 22 22 22 
25 25 25 25 25 25 25 26 26 
26 26 26 26 40 40 40 40 40 
40 40 40 28 28 28 28 42 42 
42 29 29 29 30 30 30 30 30 
44 44 31 31 31 31 31 0 0 
0 0 0 0 0 0 0 0 0 
0 0 0 0 0 0 0 0 0 
0 0 0 0 0 0 0 0 0 
0 0 46 46 46 46 46 46 20 
20 20 20 20 20 48 48 48 48 
21 23 23 23 23 22 22 22 22 
22 25 25 25 25 25 25 25 26 
26 26 26 26 38 38 40 40 40 
40 40 40 40 28 28 28 28 42 
42 42 29 29 29 30 44 44 44 
44 44 44 31 31 31 31 31 31 
0 0 0 0 0 0 0 0 0 
0 0 0 0 0 0 0 0 0 
0 0 0 0 0 0 0 0 0 
0 0 32 32 46 46 46 46 46 
20 20 20 20 20 48 48 48 48 
48 34 23 23 23 23 22 36 36 
36 36 37 37 37 37 37 37 37 
38 38 38 38 38 38 38 40 40 
40 40 40 40 40 28 28 28 28 
42 42 42 29 29 29 43 44 44 
44 44 44 44 44 31 59 59 59 
59 59 0 0 0 0 0 0 0 
0 0 0 0 0 0 0 0 0 
0 0 0 0 0 0 0 0 0 
0 0 32 32 32 32 46 46 46 
46 46 20 48 48 48 48 48 48 
48 34 34 23 23 23 23 35 36 
36 36 36 37 37 37 37 37 37 
37 38 38 38 38 38 38 38 40 
40 40 40 40 40 40 28 28 28 
28 42 42 42 42 43 43 43 43 
43 44 44 44 44 44 57 59 59 
59 59 59 59 0 0 0 0 0 
0 0 0 0 0 0 0 0 0 
0 0 0 0 0 0 0 0 0 
0 0 32 32 32 32 32 32 46 
46 46 46 33 48 48 48 48 48 
48 34 34 34 34 23 23 35 35 
36 36 36 36 37 37 37 37 37 
37 37 38 38 38 38 38 53 53 
53 39 39 39 39 39 41 41 41 
41 41 41 56 56 56 43 43 43 
43 43 44 44 44 57 57 57 57 
59 59 59 59 59 0 0 0 0 
0 0 0 0 0 0 0 0 0 
0 0 0 0 0 0 0 0 0 
0 0 0 32 32 32 32 32 32 
32 46 46 33 33 33 33 33 33 
48 48 34 34 34 34 23 35 35 
35 36 36 36 36 37 37 51 51 
51 51 51 38 38 38 53 53 53 
53 53 39 39 39 39 39 41 41 
41 41 41 41 56 56 56 43 43 
43 43 43 44 44 57 57 57 57 
57 59 59 59 59 59 0 0 0 
0 0 0 0 0 0 0 0 0 
0 0 0 0 0 0 0 0 0 
0 0 0 0 32 32 32 32 32 
32 32 46 46 33 33 33 33 33 
33 33 34 34 34 34 34 49 35 
35 35 35 36 36 36 37 51 51 
51 51 51 52 52 38 38 53 53 
53 53 53 39 39 39 39 39 41 
41 41 41 41 41 56 56 56 43 
43 43 43 43 43 57 57 57 57 
57 57 59 59 59 59 59 0 0 
0 0 0 0 0 0 0 0 0 
0 0 0 0 0 0 0 0 0 
0 0 0 0 0 45 45 45 45 
32 32 32 46 46 33 33 33 33 
33 33 47 47 34 34 34 49 49 
35 35 35 35 36 36 36 65 51 
51 51 51 51 52 52 38 38 53 
53 53 53 53 39 39 39 39 39 
39 41 41 41 41 56 56 56 56 
56 43 43 43 43 58 58 57 57 
57 57 57 59 59 73 73 73 0 
0 0 0 0 0 0 0 0 0 
0 0 0 0 0 0 0 0 0 