# vtk DataFile Version 5.1
vtk output
ASCII
DATASET STRUCTURED_POINTS
DIMENSIONS 100 100 1
SPACING 1 1 1
ORIGIN 0 0 0
POINT_DATA 10000
FIELD FieldData 3
CellType 1 10000 char
0 0 0 0 0 0 0 0 0 
0 0 0 0 0 0 0 0 0 
0 0 0 0 0 0 0 0 0 
0 0 0 0 0 0 0 0 0 
0 0 0 0 0 0 0 0 0 
0 0 0 0 0 0 0 0 0 
0 0 0 0 0 0 0 0 0 
0 0 0 0 0 0 0 0 0 
0 0 0 0 0 0 0 0 0 
0 0 0 0 0 0 0 0 0 
0 0 0 0 0 0 0 0 0 
0 0 0 0 0 0 0 0 0 
0 0 0 0 0 0 0 0 0 
0 0 0 0 0 0 0 0 0 
0 0 0 0 0 0 0 0 0 
0 0 0 0 0 0 0 0 0 
0 0 0 0 0 0 0 0 0 
0 0 0 0 0 0 0 0 0 
0 0 0 0 0 0 0 0 0 
0 0 0 0 0 0 0 0 0 
0 0 0 0 0 0 0 0 0 
0 0 0 0 0 0 0 0 0 
0 0 0 0 0 0 0 0 0 
0 0 0 0 0 0 0 0 0 
0 0 0 0 0 0 0 0 0 
0 0 0 0 0 0 0 0 0 
0 0 0 0 0 0 0 0 0 
0 0 0 0 0 0 0 0 0 
0 0 0 0 0 0 0 0 0 
0 0 0 0 0 0 0 0 0 
0 0 0 0 0 0 0 0 0 
0 0 0 0 0 0 0 0 0 
0 0 0 0 0 0 0 0 0 
0 0 0 0 0 0 0 0 0 
0 0 0 0 0 0 0 0 0 
0 0 0 0 0 0 0 0 0 
0 0 0 0 0 0 0 0 0 
0 0 0 0 0 0 0 0 0 
0 0 0 0 0 0 0 0 0 
0 0 0 0 0 0 0 0 0 
0 0 0 0 0 0 0 0 0 
0 0 0 0 0 0 0 0 0 
0 0 0 0 0 0 0 0 0 
0 0 0 0 0 0 0 0 0 
0 0 0 0 0 0 0 0 0 
0 0 0 0 0 0 0 0 0 
0 0 0 0 0 0 0 0 0 
0 0 0 0 0 0 0 0 0 
0 0 0 0 0 0 0 0 0 
0 0 0 0 0 0 0 0 0 
0 0 0 0 0 0 0 0 0 
0 0 0 0 0 0 0 0 0 
0 0 0 0 0 0 0 0 0 
0 0 0 0 0 0 0 0 0 
0 0 0 0 0 0 0 0 0 
0 0 0 0 0 0 0 0 0 
0 0 0 0 0 0 0 0 0 
0 0 0 0 0 0 0 0 0 
0 0 0 0 0 0 0 0 0 
0 0 0 0 0 0 0 0 0 
0 0 0 0 0 0 0 0 0 
0 0 0 0 0 0 0 0 0 
0 0 0 0 0 0 0 0 0 
0 0 0 0 0 0 0 0 0 
0 0 0 0 0 0 0 0 0 
0 0 0 0 0 0 0 0 0 
0 0 0 0 0 0 0 0 0 
0 0 0 0 0 0 0 0 0 
0 0 0 0 0 0 0 0 0 
0 0 0 0 0 0 0 0 0 
0 0 0 0 0 0 0 0 0 
0 0 0 0 0 0 0 0 0 
0 0 0 0 0 0 0 0 0 
0 0 0 0 0 0 0 0 0 
0 0 0 0 0 0 0 0 0 
0 0 0 0 0 0 0 0 0 
0 0 0 0 0 0 0 0 0 
0 0 0 0 0 0 0 0 0 
0 0 0 0 0 0 0 0 0 
0 0 0 0 0 0 0 0 0 
0 0 0 0 0 0 0 0 0 
0 0 0 0 0 0 0 0 0 
0 0 0 0 0 0 0 0 0 
0 0 0 0 0 0 0 0 0 
0 0 0 0 0 0 0 0 0 
0 0 0 0 0 0 0 0 0 
0 0 0 0 0 0 0 0 0 
0 0 0 0 0 0 0 0 0 
0 0 0 0 0 0 0 0 0 
0 0 0 0 0 0 0 0 0 
0 0 0 0 0 0 0 0 0 
0 0 0 0 0 0 0 0 0 
0 0 0 0 0 0 0 0 0 
0 0 0 0 0 0 0 0 0 
0 0 0 0 0 0 0 0 0 
0 0 0 0 0 0 0 0 0 
0 0 0 0 0 0 0 0 0 
0 0 0 0 0 0 0 0 0 
0 0 0 0 0 0 0 0 0 
0 0 0 0 0 0 0 0 0 
0 0 0 0 0 0 0 0 0 
0 0 0 0 0 0 0 0 0 
0 0 0 0 0 0 0 0 0 
0 0 0 0 0 0 0 0 0 
0 0 0 0 0 0 0 0 0 
0 0 0 0 0 0 0 0 0 
0 0 0 0 0 0 0 0 0 
0 0 0 0 0 0 0 0 0 
0 0 0 0 0 0 0 0 0 
0 0 0 0 0 0 0 0 0 
0 0 0 0 0 0 0 0 0 
0 0 0 0 0 0 0 0 0 
0 0 0 0 0 0 0 0 0 
0 0 0 0 0 0 0 0 0 
0 0 0 0 0 0 0 0 0 
0 0 0 0 0 0 0 0 0 
0 0 0 0 0 0 0 0 0 
0 0 0 0 0 0 0 0 0 
0 0 0 0 0 0 0 0 0 
0 0 0 0 0 0 0 0 0 
0 0 0 0 0 0 0 0 0 
0 0 0 0 0 0 0 0 0 
0 0 0 0 0 0 0 0 0 
0 0 0 0 0 0 0 0 0 
0 0 0 0 0 0 0 0 0 
0 0 0 0 0 0 0 0 0 
0 0 0 0 0 0 0 0 0 
0 0 0 0 0 0 0 0 0 
0 0 0 0 0 0 0 0 0 
0 0 0 0 0 0 0 0 0 
0 0 0 0 0 0 0 0 0 
0 0 0 0 0 0 0 0 0 
0 0 0 0 0 0 0 0 0 
0 0 0 0 0 0 0 0 0 
0 0 0 0 0 0 0 0 0 
0 0 0 0 0 0 0 0 0 
0 0 0 0 0 0 0 0 0 
0 0 0 0 0 0 0 0 0 
0 0 0 0 0 0 0 0 0 
0 0 0 0 0 0 0 0 0 
0 0 0 0 0 0 0 0 0 
0 0 0 0 0 0 0 0 0 
0 0 0 0 0 0 0 0 0 
0 0 0 0 0 0 0 0 0 
0 0 0 0 0 0 0 0 0 
0 0 0 0 0 0 0 0 0 
0 0 0 0 0 0 0 0 0 
0 0 0 0 0 0 0 0 0 
0 0 0 0 0 0 0 0 0 
0 0 0 0 0 0 0 0 0 
0 0 0 0 0 0 0 0 0 
0 0 0 0 0 0 0 0 0 
0 0 0 0 0 0 0 0 0 
0 0 0 0 0 0 0 0 0 
0 0 0 0 0 0 0 0 0 
0 0 0 0 0 0 0 0 0 
0 0 0 0 0 0 0 0 0 
0 0 0 0 0 0 0 0 0 
0 0 0 0 0 0 0 0 0 
0 0 0 0 0 0 0 0 0 
0 0 0 0 0 0 0 0 0 
0 0 0 0 0 0 0 0 0 
0 0 0 0 0 0 0 0 0 
0 0 0 0 0 0 0 0 0 
0 0 0 0 0 0 0 0 0 
0 0 0 0 0 0 0 0 0 
0 0 0 0 0 0 0 0 0 
0 0 0 0 0 0 0 0 0 
0 0 0 0 0 0 0 0 0 
0 0 0 0 0 0 0 0 0 
0 1 1 1 1 1 1 1 1 
1 1 1 1 1 1 2 2 2 
2 1 1 1 2 2 1 1 1 
1 1 1 2 2 2 2 1 1 
1 1 1 1 2 1 1 1 0 
0 0 0 0 0 0 0 0 0 
0 0 0 0 0 0 0 0 0 
0 0 0 0 0 0 0 0 0 
0 0 0 0 0 0 0 0 0 
0 0 0 0 0 0 0 0 0 
0 0 0 0 0 0 0 0 0 
0 1 1 1 1 1 1 1 1 
1 1 1 1 1 1 1 2 2 
2 2 1 1 1 2 2 1 1 
1 1 1 1 2 2 2 2 1 
1 1 1 1 1 2 1 1 1 
1 0 0 0 0 0 0 0 0 
0 0 0 0 0 0 0 0 0 
0 0 0 0 0 0 0 0 0 
0 0 0 0 0 0 0 0 0 
0 0 0 0 0 0 0 0 0 
0 0 0 0 0 0 0 0 0 
0 1 1 1 1 1 2 1 1 
1 1 1 1 2 1 1 1 2 
2 2 2 1 1 1 2 2 1 
1 1 1 1 1 2 2 2 2 
1 1 1 1 1 2 2 1 1 
1 1 1 0 0 0 0 0 0 
0 0 0 0 0 0 0 0 0 
0 0 0 0 0 0 0 0 0 
0 0 0 0 0 0 0 0 0 
0 0 0 0 0 0 0 0 0 
0 0 0 0 0 0 0 0 0 
0 1 1 1 1 1 1 2 2 
2 2 2 2 2 2 1 1 1 
2 2 2 2 1 1 1 2 2 
2 1 1 1 1 1 2 2 2 
2 1 1 1 1 2 2 2 1 
1 1 1 1 2 0 0 0 0 
0 0 0 0 0 0 0 0 0 
0 0 0 0 0 0 0 0 0 
0 0 0 0 0 0 0 0 0 
0 0 0 0 0 0 0 0 0 
0 0 0 0 0 0 0 0 0 
0 1 1 1 1 1 1 1 2 
2 2 2 2 2 2 2 1 1 
1 1 2 2 2 1 1 1 2 
2 2 2 2 1 1 2 2 2 
2 2 1 1 1 2 2 2 2 
1 1 1 1 1 2 2 0 0 
0 0 0 0 0 0 0 0 0 
0 0 0 0 0 0 0 0 0 
0 0 0 0 0 0 0 0 0 
0 0 0 0 0 0 0 0 0 
0 0 0 0 0 0 0 0 0 
0 2 2 2 2 2 2 2 1 
1 1 1 1 2 2 2 2 1 
1 1 1 2 2 2 1 1 1 
2 2 2 2 2 2 2 2 2 
2 2 2 1 1 2 2 2 2 
2 1 1 1 1 1 2 2 2 
0 0 0 0 0 0 0 0 0 
0 0 0 0 0 0 0 0 0 
0 0 0 0 0 0 0 0 0 
0 0 0 0 0 0 0 0 0 
0 0 0 0 0 0 0 0 0 
0 1 1 1 2 2 2 2 2 
1 1 1 1 1 2 2 2 2 
1 1 1 1 2 2 1 1 1 
1 2 2 2 2 1 1 1 1 
1 1 1 1 2 2 2 2 2 
2 2 1 1 1 1 1 2 2 
2 2 0 0 0 0 0 0 0 
0 0 0 0 0 0 0 0 0 
0 0 0 0 0 0 0 0 0 
0 0 0 0 0 0 0 0 0 
0 0 0 0 0 0 0 0 0 
0 1 1 1 1 2 2 2 2 
2 1 1 1 1 1 2 2 2 
2 1 1 1 1 1 1 1 1 
1 1 1 1 1 1 1 1 1 
1 1 1 1 1 2 2 2 2 
2 2 2 1 2 2 2 1 2 
2 2 2 2 0 0 0 0 0 
0 0 0 0 0 0 0 0 0 
0 0 0 0 0 0 0 0 0 
0 0 0 0 0 0 0 0 0 
0 0 0 0 0 0 0 0 0 
0 1 1 1 1 1 2 2 2 
2 2 1 1 1 1 1 1 1 
1 1 1 2 2 2 2 2 2 
2 2 2 2 2 1 1 1 1 
1 1 1 1 1 1 1 1 1 
1 1 1 1 2 2 2 2 1 
1 1 2 2 2 2 0 0 0 
0 0 0 0 0 0 0 0 0 
0 0 0 0 0 0 0 0 0 
0 0 0 0 0 0 0 0 0 
0 0 0 0 0 0 0 0 0 
0 2 1 1 1 1 1 2 2 
2 2 2 1 1 1 1 2 1 
1 1 1 1 2 2 2 2 2 
2 2 2 2 2 2 1 2 2 
2 2 2 2 2 2 2 1 1 
1 1 1 1 1 2 2 2 2 
1 1 1 1 2 2 2 1 0 
0 0 0 0 0 0 0 0 0 
0 0 0 0 0 0 0 0 0 
0 0 0 0 0 0 0 0 0 
0 0 0 0 0 0 0 0 0 
0 2 2 1 1 1 1 1 1 
2 2 2 2 1 1 2 2 2 
1 1 1 1 1 1 1 1 1 
1 1 1 2 2 2 2 1 1 
1 1 1 2 2 2 2 2 1 
1 1 1 1 1 1 2 2 2 
2 1 1 1 1 1 2 2 1 
1 0 0 0 0 0 0 0 0 
0 0 0 0 0 0 0 0 0 
0 0 0 0 0 0 0 0 0 
0 0 0 0 0 0 0 0 0 
0 2 2 2 1 1 1 2 2 
2 1 1 1 1 1 2 2 2 
2 2 1 1 1 1 1 1 1 
1 1 1 1 2 2 2 2 1 
1 1 1 1 1 2 2 2 2 
1 1 1 1 1 1 1 2 2 
2 2 1 1 1 1 1 1 1 
1 1 1 0 0 0 0 0 0 
0 0 0 0 0 0 0 0 0 
0 0 0 0 0 0 0 0 0 
0 0 0 0 0 0 0 0 0 
0 2 2 2 2 1 1 2 2 
2 2 1 1 1 1 1 2 2 
2 2 2 1 1 1 1 2 2 
1 1 1 1 1 2 1 1 1 
1 1 1 1 1 1 2 2 2 
2 1 2 2 2 2 2 1 2 
2 2 2 1 1 1 1 1 2 
2 1 1 1 1 0 0 0 0 
0 0 0 0 0 0 0 0 0 
0 0 0 0 0 0 0 0 0 
0 0 0 0 0 0 0 0 0 
0 2 2 2 2 2 1 2 2 
2 2 2 1 1 1 1 1 2 
2 2 2 2 2 2 2 1 2 
2 2 1 1 1 1 1 1 1 
1 2 1 1 1 1 1 2 2 
2 2 1 2 2 2 2 2 1 
2 2 2 2 2 2 2 2 2 
2 2 1 1 1 1 1 0 0 
0 0 0 0 0 0 0 0 0 
0 0 0 0 0 0 0 0 0 
0 0 0 0 0 0 0 0 0 
0 2 2 2 2 2 2 1 2 
2 2 2 2 1 1 1 1 1 
2 2 2 2 2 2 2 1 1 
1 1 2 2 2 2 2 1 1 
1 1 2 2 2 2 2 2 1 
1 1 1 1 2 2 2 2 2 
1 1 1 1 1 1 1 2 2 
2 2 2 1 1 1 1 2 2 
0 0 0 0 0 0 0 0 0 
0 0 0 0 0 0 0 0 0 
0 0 0 0 0 0 0 0 0 
0 1 1 1 2 2 2 2 1 
2 2 2 2 2 1 1 1 1 
1 1 1 1 1 1 1 1 1 
1 1 1 1 2 2 2 2 1 
1 1 1 2 2 2 2 2 2 
1 1 1 1 1 2 2 2 2 
2 1 1 1 1 1 1 1 2 
2 2 2 2 1 1 1 2 2 
2 2 0 0 0 0 0 0 0 
0 0 0 0 0 0 0 0 0 
0 0 0 0 0 0 0 0 0 
0 1 1 1 1 1 1 1 1 
1 1 2 2 2 2 1 1 2 
2 2 2 2 1 1 1 1 2 
1 1 1 1 1 2 2 2 2 
1 1 1 1 2 2 2 2 2 
2 1 1 1 1 1 1 2 2 
2 2 1 1 1 1 1 1 1 
1 2 2 2 2 1 1 1 2 
2 2 2 2 0 0 0 0 0 
0 0 0 0 0 0 0 0 0 
0 0 0 0 0 0 0 0 0 
0 0 1 1 1 1 1 1 2 
2 1 1 1 1 1 1 2 2 
2 2 2 2 2 1 1 1 1 
2 1 1 1 1 1 2 2 2 
2 2 2 1 2 2 2 2 2 
2 2 1 1 1 1 1 1 1 
1 1 1 1 1 1 2 2 2 
2 2 2 2 2 2 2 2 2 
2 2 2 2 2 0 0 0 0 
0 0 0 0 0 0 0 0 0 
0 0 0 0 0 0 0 0 0 
0 0 0 1 1 1 1 1 1 
2 2 2 1 1 1 1 1 2 
2 2 2 2 2 2 1 1 1 
1 2 2 2 2 2 2 1 1 
1 2 2 2 1 1 1 1 1 
1 1 1 2 2 2 2 2 2 
1 2 2 2 2 2 2 2 2 
2 2 2 2 1 1 1 1 1 
2 2 2 2 2 2 0 0 0 
0 0 0 0 0 0 0 0 0 
0 0 0 0 0 0 0 0 0 
0 0 0 0 1 1 1 1 1 
2 2 2 2 1 1 1 1 1 
2 2 2 2 2 2 2 1 1 
1 1 2 2 2 2 2 2 1 
1 1 1 1 1 1 1 1 1 
1 1 1 1 2 2 2 2 2 
2 1 2 2 2 2 2 1 2 
2 2 2 2 2 1 1 1 1 
1 1 1 2 2 2 2 0 0 
0 0 0 0 0 0 0 0 0 
0 0 0 0 0 0 0 0 0 
0 0 0 0 0 2 2 2 1 
1 2 2 2 2 1 1 1 1 
1 2 1 1 1 1 1 1 1 
1 1 1 2 2 2 2 2 2 
1 1 1 1 2 2 1 1 1 
1 1 1 1 1 2 2 2 2 
1 1 1 2 2 2 2 2 1 
2 2 2 2 2 2 2 2 2 
2 1 1 1 1 1 1 2 0 
0 0 0 0 0 0 0 0 0 
0 0 0 0 0 0 0 0 0 
0 0 0 0 0 0 2 2 2 
2 1 2 2 2 2 1 2 2 
2 2 2 1 1 1 1 1 2 
2 2 2 2 2 2 2 2 2 
2 1 1 1 1 2 2 2 1 
1 2 2 2 2 1 2 2 2 
2 1 1 1 1 2 2 2 2 
1 1 1 1 1 1 1 2 2 
2 2 1 1 1 1 2 2 2 
0 0 0 0 0 0 0 0 0 
0 0 0 0 0 0 0 0 0 
0 0 0 0 0 0 0 2 2 
2 2 1 2 2 2 2 2 2 
2 2 2 2 1 1 1 1 1 
2 2 2 2 1 1 1 1 1 
2 2 1 1 1 1 2 2 2 
2 2 2 2 2 2 2 2 2 
2 1 1 1 1 1 2 2 2 
2 1 1 1 1 1 1 2 2 
2 2 2 1 1 1 2 2 2 
2 0 0 0 0 0 0 0 0 
0 0 0 0 0 0 0 0 0 
0 0 0 0 0 0 0 0 2 
2 2 2 1 1 1 1 1 2 
2 2 2 2 2 1 1 1 1 
1 2 2 2 2 1 1 1 1 
1 1 1 1 1 1 1 2 2 
2 2 1 2 2 2 2 2 1 
2 2 1 1 1 1 1 2 2 
2 2 2 1 1 1 1 2 2 
2 2 2 2 1 1 1 2 2 
2 2 0 0 0 0 0 0 0 
0 0 0 0 0 0 0 0 0 
0 0 0 0 0 0 0 0 0 
2 2 2 2 1 1 1 1 1 
2 2 2 2 2 2 1 1 1 
1 1 2 2 2 2 1 1 1 
1 1 2 2 2 2 2 1 2 
2 2 2 1 1 2 2 2 2 
1 1 1 1 1 1 1 1 1 
1 1 1 2 1 1 1 1 2 
2 2 2 2 2 1 1 1 2 
2 2 2 0 0 0 0 0 0 
0 0 0 0 0 0 0 0 0 
0 0 0 0 0 0 0 0 0 
0 2 2 2 2 1 1 1 1 
1 2 1 1 1 1 1 2 2 
2 2 1 2 2 2 2 1 1 
1 1 2 2 2 2 2 2 1 
2 2 2 2 1 1 1 1 1 
1 1 2 2 2 2 2 2 2 
1 1 1 1 1 1 1 1 1 
2 2 2 1 1 2 2 2 2 
2 2 2 2 0 0 0 0 0 
0 0 0 0 0 0 0 0 0 
0 0 0 0 0 0 0 0 0 
0 0 2 2 2 1 1 1 1 
1 1 1 1 1 1 1 1 2 
2 2 2 1 2 2 2 2 1 
1 1 1 2 2 2 2 2 2 
1 1 2 2 2 1 1 1 1 
1 1 2 2 2 2 2 2 2 
2 1 1 1 1 1 2 2 2 
2 1 1 1 1 1 2 2 2 
2 1 2 2 2 0 0 0 0 
0 0 0 0 0 0 0 0 0 
0 0 0 0 0 0 0 0 0 
0 0 0 1 1 1 1 1 1 
1 2 2 2 2 1 1 1 1 
2 2 2 2 1 1 1 1 2 
1 1 1 2 2 2 2 2 2 
2 1 1 1 1 2 1 1 1 
1 1 2 2 2 2 2 2 2 
2 2 1 1 1 1 1 2 2 
2 2 1 1 1 1 1 2 2 
2 2 1 2 2 2 0 0 0 
0 0 0 0 0 0 0 0 0 
0 0 0 0 0 0 0 0 0 
0 0 0 0 2 2 2 2 2 
2 2 2 2 2 2 2 1 1 
1 2 2 2 2 1 1 1 1 
1 2 2 1 1 1 1 1 2 
2 2 1 1 1 1 1 1 1 
1 2 2 2 2 2 1 1 1 
1 1 1 1 1 1 1 1 2 
2 2 2 1 1 1 1 1 2 
2 2 2 1 2 2 2 0 0 
0 0 0 0 0 0 0 0 0 
0 0 0 0 0 0 0 0 0 
0 0 0 0 0 2 2 2 2 
2 1 1 2 2 2 2 2 1 
1 1 2 2 2 2 1 1 1 
1 1 2 2 1 1 1 1 1 
1 1 1 1 1 1 1 2 2 
2 1 1 1 1 1 1 1 1 
1 1 1 1 2 2 2 2 2 
2 2 2 2 1 1 1 1 1 
2 2 2 2 1 1 1 1 0 
0 0 0 0 0 0 0 0 0 
0 0 0 0 0 0 0 0 0 
0 0 0 0 0 0 2 2 2 
2 2 1 1 1 2 2 2 2 
2 1 1 2 2 2 2 1 1 
1 1 2 2 2 1 1 1 1 
1 1 2 2 1 1 1 1 2 
2 2 1 1 1 1 1 2 1 
1 1 1 1 1 2 2 2 2 
2 2 2 2 2 1 1 1 1 
1 1 1 2 1 1 1 1 1 
0 0 0 0 0 0 0 0 0 
0 0 0 0 0 0 0 0 0 
0 0 0 0 0 0 0 2 2 
2 2 2 1 1 1 1 2 2 
2 2 2 2 2 2 2 2 1 
1 1 1 2 2 2 1 1 1 
1 2 2 2 2 2 2 1 2 
2 2 2 1 1 1 1 1 2 
2 1 1 1 1 1 1 1 1 
1 2 2 1 1 1 1 2 2 
2 2 2 2 2 1 1 1 1 
1 0 0 0 0 0 0 0 0 
0 0 0 0 0 0 0 0 0 
0 0 0 0 0 0 0 0 2 
2 2 2 2 1 1 1 1 1 
2 2 2 1 1 1 1 1 1 
1 1 1 1 2 2 2 2 1 
1 2 2 2 2 2 2 2 1 
2 2 2 2 1 1 1 1 1 
2 2 2 2 2 2 2 1 1 
1 1 1 1 1 1 1 1 2 
2 2 2 2 2 2 2 1 1 
1 1 0 0 0 0 0 0 0 
0 0 0 0 0 0 0 0 0 
0 0 0 0 0 0 0 0 0 
1 1 1 2 2 1 1 1 1 
1 1 1 1 1 1 1 1 2 
2 2 2 2 1 2 2 2 2 
1 2 2 2 2 2 2 2 1 
1 1 2 2 2 1 1 1 1 
2 2 2 2 2 2 2 1 1 
1 1 1 2 2 1 1 1 1 
1 2 2 2 2 2 2 2 1 
1 1 1 0 0 0 0 0 0 
0 0 0 0 0 0 0 0 0 
0 0 0 0 0 0 0 0 0 
0 1 1 1 1 2 1 1 1 
1 2 2 2 1 1 1 1 1 
2 2 2 2 1 1 1 2 2 
2 1 1 1 1 2 2 2 1 
1 1 1 2 2 2 2 1 2 
2 2 2 2 2 2 2 2 1 
1 1 1 1 2 2 1 1 1 
1 1 2 2 2 2 2 2 2 
1 1 1 1 0 0 0 0 0 
0 0 0 0 0 0 0 0 0 
0 0 0 0 0 0 0 0 0 
0 0 1 1 1 1 1 1 1 
1 2 2 2 2 1 1 1 1 
1 2 2 2 2 1 1 1 1 
2 2 1 1 1 1 1 2 2 
1 1 1 1 2 2 2 2 1 
2 2 2 2 2 1 1 1 1 
1 1 1 1 1 2 2 2 1 
1 1 1 2 1 1 1 1 1 
1 1 1 1 1 0 0 0 0 
0 0 0 0 0 0 0 0 0 
0 0 0 0 0 0 0 0 0 
0 0 0 1 1 1 1 2 2 
2 1 2 2 2 2 2 1 1 
1 1 2 2 2 2 1 1 1 
1 2 2 1 1 1 1 1 1 
1 1 1 1 1 2 2 2 2 
1 1 1 1 1 1 1 1 1 
1 2 2 2 2 2 2 2 2 
1 1 1 1 1 1 1 1 1 
1 2 2 2 1 1 0 0 0 
0 0 0 0 0 0 0 0 0 
0 0 0 0 0 0 0 0 0 
0 0 0 0 1 1 1 1 2 
2 2 1 1 1 2 2 2 2 
2 1 2 2 2 2 2 1 1 
1 1 2 2 1 1 1 1 1 
1 1 1 1 1 1 2 2 2 
2 1 1 1 1 1 1 1 1 
1 1 2 2 2 2 2 1 1 
1 1 2 2 2 2 1 1 1 
1 1 2 2 1 1 1 0 0 
0 0 0 0 0 0 0 0 0 
0 0 0 0 0 0 0 0 0 
0 0 0 0 0 1 1 1 2 
2 2 1 1 1 1 1 2 2 
2 2 1 2 2 2 2 2 1 
1 1 1 2 2 2 1 1 2 
2 2 2 2 2 2 1 1 1 
1 1 1 1 1 1 1 1 1 
1 1 1 2 2 2 2 2 1 
1 1 1 2 2 2 2 1 1 
1 1 1 2 2 1 1 1 0 
0 0 0 0 0 0 0 0 0 
0 0 0 0 0 0 0 0 0 
0 0 0 0 0 0 2 2 2 
2 2 2 1 1 1 1 1 2 
2 2 2 1 1 1 1 1 1 
1 1 1 1 1 1 1 1 1 
2 2 2 2 2 2 2 1 1 
1 1 1 1 1 1 1 1 1 
1 1 1 1 2 2 2 2 1 
1 1 1 1 2 2 2 2 2 
2 1 1 1 2 2 1 1 1 
0 0 0 0 0 0 0 0 0 
0 0 0 0 0 0 0 0 0 
0 0 0 0 0 0 0 2 2 
2 2 2 2 1 1 1 1 1 
1 2 1 1 1 1 1 1 1 
2 2 2 2 2 1 1 1 1 
1 2 2 2 2 2 2 2 1 
1 1 1 1 2 2 2 2 2 
2 2 2 1 1 1 1 1 1 
1 1 1 1 1 2 2 2 2 
2 1 1 1 1 2 2 1 1 
1 0 0 0 0 0 0 0 0 
0 0 0 0 0 0 0 0 0 
0 0 0 0 0 0 0 0 2 
2 2 2 2 2 1 1 1 1 
1 1 2 1 1 1 1 1 1 
1 2 2 2 2 2 1 1 1 
1 1 2 2 1 1 1 1 1 
1 1 1 1 1 2 2 2 2 
2 2 2 2 1 1 1 1 1 
2 2 1 1 1 1 2 2 2 
2 2 1 1 1 1 2 2 1 
1 1 0 0 0 0 0 0 0 
0 0 0 0 0 0 0 0 0 
0 0 0 0 0 0 0 0 0 
1 1 1 1 1 1 2 2 2 
2 2 2 2 1 1 1 1 1 
1 1 2 2 2 2 2 1 1 
1 1 1 2 2 1 1 1 1 
1 1 1 1 1 1 1 1 1 
1 2 2 2 2 1 1 1 1 
1 2 2 2 2 2 1 1 1 
2 2 2 1 1 1 1 2 2 
1 1 1 0 0 0 0 0 0 
0 0 0 0 0 0 0 0 0 
0 0 0 0 0 0 0 0 0 
0 1 1 1 1 1 1 2 2 
2 2 2 2 2 1 2 2 2 
2 2 2 1 1 2 2 2 2 
1 1 1 2 2 2 1 1 1 
1 1 2 2 2 2 1 1 1 
1 1 2 2 2 2 1 1 1 
1 2 2 2 2 2 2 1 1 
1 1 1 2 1 1 1 1 2 
2 1 1 1 0 0 0 0 0 
0 0 0 0 0 0 0 0 0 
0 0 0 0 0 0 0 0 0 
0 0 1 1 1 1 1 1 2 
2 2 2 2 2 2 1 2 2 
2 2 2 2 1 1 1 1 2 
2 2 1 1 1 1 2 2 1 
1 1 1 2 2 2 2 1 1 
1 1 1 2 2 2 2 1 1 
2 2 2 2 2 2 2 2 1 
1 1 1 1 2 1 1 1 2 
2 2 2 2 1 0 0 0 0 
0 0 0 0 0 0 0 0 0 
0 0 0 0 0 0 0 0 0 
0 0 0 1 1 1 1 1 1 
2 2 2 2 2 2 2 1 1 
2 2 2 2 2 1 1 1 1 
2 2 1 1 1 1 1 2 2 
1 1 1 1 2 2 2 2 1 
1 1 1 1 2 2 2 2 2 
1 1 1 1 1 1 2 2 2 
1 1 1 1 1 2 1 1 1 
2 2 2 2 2 1 0 0 0 
0 0 0 0 0 0 0 0 0 
0 0 0 0 0 0 0 0 0 
0 0 0 0 1 1 1 1 1 
1 1 1 1 1 1 1 1 1 
1 1 2 2 2 2 1 1 1 
1 2 2 1 1 1 1 1 1 
1 1 1 1 1 2 2 2 2 
1 1 1 1 1 1 1 1 1 
1 1 1 1 1 1 1 2 2 
2 1 1 1 1 1 1 1 1 
1 1 1 1 1 1 1 0 0 
0 0 0 0 0 0 0 0 0 
0 0 0 0 0 0 0 0 0 
0 0 0 0 0 2 2 2 2 
2 2 2 1 1 1 1 2 2 
1 1 1 2 2 2 2 1 1 
1 1 2 2 1 1 1 1 1 
1 1 1 1 1 1 2 2 2 
2 2 2 2 1 1 1 1 1 
2 2 1 1 1 1 1 1 2 
2 2 1 1 1 2 2 1 1 
1 1 1 1 1 1 1 1 0 
0 0 0 0 0 0 0 0 0 
0 0 0 0 0 0 0 0 0 
0 0 0 0 0 0 2 2 2 
2 2 2 2 1 1 1 1 2 
2 1 1 1 1 1 2 2 1 
1 1 1 2 2 2 1 1 1 
1 2 1 1 1 1 1 1 1 
1 1 2 2 2 1 1 1 1 
1 2 2 2 1 1 1 1 1 
1 1 1 1 2 2 2 2 1 
1 1 1 1 1 1 1 1 1 
0 0 0 0 0 0 0 0 0 
0 0 0 0 0 0 0 0 0 
0 0 0 0 0 0 0 2 2 
2 2 2 2 2 1 1 1 1 
2 2 2 1 1 1 1 1 1 
1 1 1 1 1 1 1 1 2 
2 2 2 1 1 1 1 2 1 
1 1 1 1 2 2 1 1 1 
1 2 2 2 2 1 2 2 2 
2 1 1 1 1 2 2 2 2 
2 2 2 1 1 2 1 1 1 
1 0 0 0 0 0 0 0 0 
0 0 0 0 0 0 0 0 0 
0 0 0 0 0 0 0 0 2 
2 2 2 2 2 2 1 1 1 
1 2 2 2 2 1 1 1 2 
2 2 2 2 2 1 1 1 1 
1 2 2 2 2 2 2 2 2 
1 1 1 1 1 2 2 1 1 
1 1 2 2 2 1 1 1 2 
2 2 1 1 1 1 2 2 2 
2 2 2 1 1 1 2 1 1 
1 1 0 0 0 0 0 0 0 
0 0 0 0 0 0 0 0 0 
0 0 0 0 0 0 0 0 0 
1 1 1 1 1 1 1 1 1 
1 1 2 2 2 2 2 1 1 
2 2 2 2 2 2 1 1 1 
1 1 1 2 2 2 2 2 2 
2 1 1 1 1 1 2 2 1 
2 2 2 2 2 1 1 1 1 
2 2 2 1 1 1 1 2 2 
2 2 2 1 1 1 1 2 1 
1 1 1 0 0 0 0 0 0 
0 0 0 0 0 0 0 0 0 
0 0 0 0 0 0 0 0 0 
0 1 1 1 1 1 1 2 2 
2 1 1 2 2 2 2 2 2 
2 2 2 2 2 2 2 1 1 
1 1 1 1 2 2 2 2 2 
2 2 1 1 1 1 1 1 1 
1 1 2 2 2 2 1 1 1 
1 2 2 2 1 1 1 1 2 
2 2 2 2 1 1 1 1 2 
2 1 1 1 0 0 0 0 0 
0 0 0 0 0 0 0 0 0 
0 0 0 0 0 0 0 0 0 
0 0 1 1 1 1 1 1 2 
2 2 2 2 1 1 1 1 1 
1 2 2 2 2 2 2 2 1 
1 1 1 1 1 2 2 2 2 
1 1 1 1 2 2 2 2 1 
1 1 1 2 2 2 2 1 1 
1 1 2 2 2 1 1 1 1 
1 1 1 1 2 1 1 1 1 
2 2 1 1 1 0 0 0 0 
0 0 0 0 0 0 0 0 0 
0 0 0 0 0 0 0 0 0 
0 0 0 1 1 1 1 1 1 
2 2 2 2 2 1 1 1 1 
1 1 2 2 2 2 1 1 1 
1 2 2 2 2 1 1 1 1 
1 1 1 1 1 2 2 2 2 
1 1 1 1 2 2 2 2 1 
1 1 2 2 2 2 1 1 1 
2 1 1 1 1 1 1 1 1 
1 2 1 1 1 1 0 0 0 
0 0 0 0 0 0 0 0 0 
0 0 0 0 0 0 0 0 0 
0 0 0 0 2 2 2 2 2 
1 2 2 2 2 2 1 1 1 
2 2 2 1 1 1 1 1 1 
1 1 1 2 2 2 1 1 1 
2 2 1 1 1 1 2 2 2 
2 1 1 1 1 1 1 1 1 
1 1 1 2 2 2 2 2 1 
2 2 1 1 1 1 1 2 2 
2 2 2 1 1 1 1 0 0 
0 0 0 0 0 0 0 0 0 
0 0 0 0 0 0 0 0 0 
0 0 0 0 0 2 2 2 2 
2 1 2 2 2 2 2 1 1 
1 2 2 2 1 1 1 2 2 
1 1 1 1 2 2 2 1 1 
1 2 2 1 1 1 1 2 2 
2 2 1 1 1 1 1 1 1 
1 1 1 1 2 2 1 1 1 
1 2 2 2 1 1 1 1 2 
2 2 2 2 1 1 1 1 0 
0 0 0 0 0 0 0 0 0 
0 0 0 0 0 0 0 0 0 
0 0 0 0 0 0 2 2 2 
2 2 1 1 1 2 2 2 1 
1 1 2 2 2 1 1 1 2 
2 1 1 1 1 2 2 2 1 
1 1 2 2 2 1 1 1 2 
2 2 2 1 1 1 1 2 2 
1 1 1 1 1 2 1 1 1 
1 1 2 2 2 2 1 1 1 
2 2 2 2 2 1 1 1 1 
0 0 0 0 0 0 0 0 0 
0 0 0 0 0 0 0 0 0 
0 0 0 0 0 0 0 2 2 
2 2 1 1 1 1 1 1 2 
1 1 1 2 2 2 1 1 1 
2 2 2 1 1 1 2 2 2 
1 1 1 2 2 2 1 1 1 
2 2 1 1 1 2 2 2 2 
2 2 1 1 1 1 1 1 1 
1 1 1 2 2 2 2 2 1 
1 2 2 2 2 2 1 1 1 
1 0 0 0 0 0 0 0 0 
0 0 0 0 0 0 0 0 0 
0 0 0 0 0 0 0 0 2 
2 2 2 1 1 1 1 1 1 
2 1 1 1 2 2 2 1 1 
1 2 2 2 2 1 1 2 2 
2 1 1 1 2 2 2 2 1 
2 2 1 1 1 1 2 2 2 
2 2 2 2 1 1 1 1 1 
1 1 1 1 2 2 2 2 2 
2 1 1 1 1 1 1 1 1 
1 0 0 0 0 0 0 0 0 
0 0 0 0 0 0 0 0 0 
0 0 0 0 0 0 0 0 0 
0 2 2 1 1 1 2 2 2 
2 2 2 1 1 2 2 2 1 
1 1 1 2 2 2 2 1 2 
2 2 1 1 1 2 2 2 2 
1 2 2 1 1 1 1 2 2 
2 1 1 1 1 1 2 2 2 
1 1 1 1 2 2 2 2 2 
2 2 1 1 1 1 1 1 1 
1 0 0 0 0 0 0 0 0 
0 0 0 0 0 0 0 0 0 
0 0 0 0 0 0 0 0 0 
0 0 0 2 1 1 1 2 2 
2 2 2 2 1 1 2 2 2 
1 1 1 1 2 2 2 2 1 
2 2 2 2 1 2 2 2 1 
1 1 1 2 1 1 1 1 2 
2 2 1 1 1 1 1 2 2 
2 2 2 2 1 1 1 1 1 
1 1 1 1 1 1 1 1 1 
1 0 0 0 0 0 0 0 0 
0 0 0 0 0 0 0 0 0 
0 0 0 0 0 0 0 0 0 
0 0 0 0 0 1 1 2 2 
2 2 2 2 2 1 1 2 2 
2 1 1 1 1 2 2 2 2 
1 1 1 1 1 1 2 2 2 
1 1 1 1 2 1 1 1 1 
2 2 2 1 1 1 1 1 2 
2 2 2 2 2 1 1 1 1 
1 1 2 2 2 2 2 1 1 
1 0 0 0 0 0 0 0 0 
0 0 0 0 0 0 0 0 0 
0 0 0 0 0 0 0 0 0 
0 0 0 0 0 0 0 2 2 
2 2 2 2 1 1 2 2 1 
1 1 2 2 2 2 1 1 1 
2 1 1 1 1 1 1 2 2 
1 1 1 1 1 1 1 1 1 
1 2 2 2 1 1 1 1 1 
2 2 2 2 2 2 1 1 1 
1 1 2 2 2 2 2 2 1 
1 0 0 0 0 0 0 0 0 
0 0 0 0 0 0 0 0 0 
0 0 0 0 0 0 0 0 0 
0 0 0 0 0 0 0 0 0 
2 2 1 1 1 1 1 2 2 
1 1 1 2 2 2 2 1 1 
1 2 1 1 1 1 1 1 2 
2 1 1 1 1 1 2 2 1 
1 1 2 2 2 1 1 1 2 
2 2 2 2 2 2 2 1 1 
1 1 1 2 2 2 2 2 2 
2 0 0 0 0 0 0 0 0 
0 0 0 0 0 0 0 0 0 
0 0 0 0 0 0 0 0 0 
0 0 0 0 0 0 0 0 0 
0 0 1 1 1 1 1 2 2 
2 1 1 1 2 2 2 2 1 
1 1 2 2 2 1 1 1 1 
1 1 1 1 1 1 1 2 2 
2 2 2 1 1 1 1 1 1 
2 2 1 1 1 1 1 1 1 
1 1 1 2 2 2 2 2 2 
2 0 0 0 0 0 0 0 0 
0 0 0 0 0 0 0 0 0 
0 0 0 0 0 0 0 0 0 
0 0 0 0 0 0 0 0 0 
0 0 0 0 1 1 1 1 2 
2 2 1 1 1 2 2 2 2 
1 1 1 2 2 2 2 1 1 
1 2 2 2 2 2 1 1 2 
2 2 2 2 1 1 1 1 1 
1 1 1 1 1 1 1 1 2 
2 2 2 1 1 1 1 1 1 
2 0 0 0 0 0 0 0 0 
0 0 0 0 0 0 0 0 0 
0 0 0 0 0 0 0 0 0 
0 0 0 0 0 0 0 0 0 
0 0 0 0 0 0 1 1 1 
2 2 2 1 1 1 2 2 2 
2 1 1 2 2 2 2 2 1 
1 2 2 2 2 2 1 1 1 
1 2 2 2 2 1 1 1 1 
1 1 2 1 1 1 1 1 2 
2 2 2 2 1 1 1 1 1 
1 0 0 0 0 0 0 0 0 
0 0 0 0 0 0 0 0 0 
0 0 0 0 0 0 0 0 0 
0 0 0 0 0 0 0 0 0 
0 0 0 0 0 0 0 0 1 
1 2 2 2 1 1 1 2 2 
2 2 1 1 2 2 2 2 2 
1 2 2 2 2 2 2 1 1 
1 1 2 2 2 2 1 1 1 
1 1 1 2 1 1 1 1 1 
2 2 2 2 2 1 1 1 1 
1 0 0 0 0 0 0 0 0 
0 0 0 0 0 0 0 0 0 
0 0 0 0 0 0 0 0 0 
0 0 0 0 0 0 0 0 0 
0 0 0 0 0 0 0 0 0 
0 1 2 2 2 1 1 1 2 
2 1 1 1 1 2 2 2 2 
2 1 2 2 2 2 2 2 1 
1 1 1 2 2 2 2 2 1 
2 2 2 2 2 2 2 1 1 
2 2 2 2 2 2 1 1 1 
1 0 0 0 0 0 0 0 0 
0 0 0 0 0 0 0 0 0 
0 0 0 0 0 0 0 0 0 
0 0 0 0 0 0 0 0 0 
0 0 0 0 0 0 0 0 0 
0 0 0 2 2 2 1 1 1 
1 1 1 1 1 1 2 2 2 
1 1 1 2 2 2 2 2 2 
1 1 1 1 2 2 2 2 2 
1 1 1 1 1 2 2 2 2 
1 2 2 2 2 2 2 1 1 
1 0 0 0 0 0 0 0 0 
0 0 0 0 0 0 0 0 0 
0 0 0 0 0 0 0 0 0 
0 0 0 0 0 0 0 0 0 
0 0 0 0 0 0 0 0 0 
0 0 0 0 0 2 2 1 1 
1 2 2 2 2 2 2 1 1 
1 1 1 1 2 1 1 1 1 
1 1 1 1 1 1 1 1 2 
2 1 1 1 1 1 2 2 2 
2 1 1 1 1 1 1 2 2 
1 0 0 0 0 0 0 0 0 
0 0 0 0 0 0 0 0 0 
0 0 0 0 0 0 0 0 0 
0 0 0 0 0 0 0 0 0 
0 0 0 0 0 0 0 0 0 
0 0 0 0 0 0 0 1 1 
1 2 2 2 2 2 2 2 1 
1 1 1 1 1 2 1 1 1 
1 1 1 1 1 1 1 1 1 
1 1 1 1 1 1 1 2 2 
2 2 1 1 1 1 1 1 1 
2 0 0 0 0 0 0 0 0 
0 0 0 0 0 0 0 0 0 
0 0 0 0 0 0 0 0 0 
0 0 0 0 0 0 0 0 0 
0 0 0 0 0 0 0 0 0 
0 0 0 0 0 0 0 0 0 
2 2 2 2 2 2 2 2 2 
1 1 1 1 1 1 2 1 1 
1 1 1 1 1 1 1 1 1 
1 1 1 1 1 1 1 1 2 
2 2 2 1 1 1 1 1 1 
1 0 0 0 0 0 0 0 0 
0 0 0 0 0 0 0 0 0 
0 0 0 0 0 0 0 0 0 
0 0 0 0 0 0 0 0 0 
0 0 0 0 0 0 0 0 0 
0 0 0 0 0 0 0 0 0 
0 0 2 2 2 2 2 2 2 
2 1 1 1 1 1 1 1 1 
1 1 1 1 1 1 1 1 1 
1 1 1 1 1 1 1 1 1 
2 2 2 2 1 1 1 1 1 
1 0 0 0 0 0 0 0 0 
0 0 0 0 0 0 0 0 0 
0 0 0 0 0 0 0 0 0 
0 0 0 0 0 0 0 0 0 
0 0 0 0 0 0 0 0 0 
0 0 0 0 0 0 0 0 0 
0 0 0 0 0 0 0 0 0 
0 0 0 0 0 0 0 0 0 
0 0 0 0 0 0 0 0 0 
0 0 0 0 0 0 0 0 0 
0 0 0 0 0 0 0 0 0 
0 0 0 0 0 0 0 0 0 
0 0 0 0 0 0 0 0 0 
0 0 0 0 0 0 0 0 0 
0 0 0 0 0 0 0 0 0 
0 0 0 0 0 0 0 0 0 
0 0 0 0 0 0 0 0 0 
0 0 0 0 0 0 0 0 0 
0 0 0 0 0 0 0 0 0 
0 0 0 0 0 0 0 0 0 
0 0 0 0 0 0 0 0 0 
0 0 0 0 0 0 0 0 0 
0 0 0 0 0 0 0 0 0 
0 0 0 0 0 0 0 0 0 
0 0 0 0 0 0 0 0 0 
0 0 0 0 0 0 0 0 0 
0 0 0 0 0 0 0 0 0 
0 0 0 0 0 0 0 0 0 
0 0 0 0 0 0 0 0 0 
0 0 0 0 0 0 0 0 0 
0 0 0 0 0 0 0 0 0 
0 0 0 0 0 0 0 0 0 
0 0 0 0 0 0 0 0 0 
0 0 0 0 0 0 0 0 0 
0 0 0 0 0 0 0 0 0 
0 0 0 0 0 0 0 0 0 
0 0 0 0 0 0 0 0 0 
0 0 0 0 0 0 0 0 0 
0 0 0 0 0 0 0 0 0 
0 0 0 0 0 0 0 0 0 
0 0 0 0 0 0 0 0 0 
0 0 0 0 0 0 0 0 0 
0 0 0 0 0 0 0 0 0 
0 0 0 0 0 0 0 0 0 
0 0 0 0 0 0 0 0 0 
0 0 0 0 0 0 0 0 0 
0 0 0 0 0 0 0 0 0 
0 0 0 0 0 0 0 0 0 
0 0 0 0 0 0 0 0 0 
0 0 0 0 0 0 0 0 0 
0 0 0 0 0 0 0 0 0 
0 0 0 0 0 0 0 0 0 
0 0 0 0 0 0 0 0 0 
0 0 0 0 0 0 0 0 0 
0 0 0 0 0 0 0 0 0 
0 0 0 0 0 0 0 0 0 
0 0 0 0 0 0 0 0 0 
0 0 0 0 0 0 0 0 0 
0 0 0 0 0 0 0 0 0 
0 0 0 0 0 0 0 0 0 
0 0 0 0 0 0 0 0 0 
0 0 0 0 0 0 0 0 0 
0 0 0 0 0 0 0 0 0 
0 0 0 0 0 0 0 0 0 
0 0 0 0 0 0 0 0 0 
0 0 0 0 0 0 0 0 0 
0 0 0 0 0 0 0 0 0 
0 0 0 0 0 0 0 0 0 
0 0 0 0 0 0 0 0 0 
0 0 0 0 0 0 0 0 0 
0 0 0 0 0 0 0 0 0 
0 0 0 0 0 0 0 0 0 
0 0 0 0 0 0 0 0 0 
0 0 0 0 0 0 0 0 0 
0 0 0 0 0 0 0 0 0 
0 0 0 0 0 0 0 0 0 
0 0 0 0 0 0 0 0 0 
0 0 0 0 0 0 0 0 0 
0 0 0 0 0 0 0 0 0 
0 0 0 0 0 0 0 0 0 
0 0 0 0 0 0 0 0 0 
0 0 0 0 0 0 0 0 0 
0 0 0 0 0 0 0 0 0 
0 0 0 0 0 0 0 0 0 
0 0 0 0 0 0 0 0 0 
0 0 0 0 0 0 0 0 0 
0 0 0 0 0 0 0 0 0 
0 0 0 0 0 0 0 0 0 
0 0 0 0 0 0 0 0 0 
0 0 0 0 0 0 0 0 0 
0 0 0 0 0 0 0 0 0 
0 0 0 0 0 0 0 0 0 
0 0 0 0 0 0 0 0 0 
0 0 0 0 0 0 0 0 0 
0 0 0 0 0 0 0 0 0 
0 0 0 0 0 0 0 0 0 
0 0 0 0 0 0 0 0 0 
0 0 0 0 0 0 0 0 0 
0 0 0 0 0 0 0 0 0 
0 0 0 0 0 0 0 0 0 
0 0 0 0 0 0 0 0 0 
0 0 0 0 0 0 0 0 0 
0 0 0 0 0 0 0 0 0 
0 0 0 0 0 0 0 0 0 
0 0 0 0 0 0 0 0 0 
0 0 0 0 0 0 0 0 0 
0 0 0 0 0 0 0 0 0 
0 0 0 0 0 0 0 0 0 
0 0 0 0 0 0 0 0 0 
0 0 0 0 0 0 0 0 0 
0 0 0 0 0 0 0 0 0 
0 0 0 0 0 0 0 0 0 
0 0 0 0 0 0 0 0 0 
0 0 0 0 0 0 0 0 0 
0 
CellId 1 10000 long
0 0 0 0 0 0 0 0 0 
0 0 0 0 0 0 0 0 0 
0 0 0 0 0 0 0 0 0 
0 0 0 0 0 0 0 0 0 
0 0 0 0 0 0 0 0 0 
0 0 0 0 0 0 0 0 0 
0 0 0 0 0 0 0 0 0 
0 0 0 0 0 0 0 0 0 
0 0 0 0 0 0 0 0 0 
0 0 0 0 0 0 0 0 0 
0 0 0 0 0 0 0 0 0 
0 0 0 0 0 0 0 0 0 
0 0 0 0 0 0 0 0 0 
0 0 0 0 0 0 0 0 0 
0 0 0 0 0 0 0 0 0 
0 0 0 0 0 0 0 0 0 
0 0 0 0 0 0 0 0 0 
0 0 0 0 0 0 0 0 0 
0 0 0 0 0 0 0 0 0 
0 0 0 0 0 0 0 0 0 
0 0 0 0 0 0 0 0 0 
0 0 0 0 0 0 0 0 0 
0 0 0 0 0 0 0 0 0 
0 0 0 0 0 0 0 0 0 
0 0 0 0 0 0 0 0 0 
0 0 0 0 0 0 0 0 0 
0 0 0 0 0 0 0 0 0 
0 0 0 0 0 0 0 0 0 
0 0 0 0 0 0 0 0 0 
0 0 0 0 0 0 0 0 0 
0 0 0 0 0 0 0 0 0 
0 0 0 0 0 0 0 0 0 
0 0 0 0 0 0 0 0 0 
0 0 0 0 0 0 0 0 0 
0 0 0 0 0 0 0 0 0 
0 0 0 0 0 0 0 0 0 
0 0 0 0 0 0 0 0 0 
0 0 0 0 0 0 0 0 0 
0 0 0 0 0 0 0 0 0 
0 0 0 0 0 0 0 0 0 
0 0 0 0 0 0 0 0 0 
0 0 0 0 0 0 0 0 0 
0 0 0 0 0 0 0 0 0 
0 0 0 0 0 0 0 0 0 
0 0 0 0 0 0 0 0 0 
0 0 0 0 0 0 0 0 0 
0 0 0 0 0 0 0 0 0 
0 0 0 0 0 0 0 0 0 
0 0 0 0 0 0 0 0 0 
0 0 0 0 0 0 0 0 0 
0 0 0 0 0 0 0 0 0 
0 0 0 0 0 0 0 0 0 
0 0 0 0 0 0 0 0 0 
0 0 0 0 0 0 0 0 0 
0 0 0 0 0 0 0 0 0 
0 0 0 0 0 0 0 0 0 
0 0 0 0 0 0 0 0 0 
0 0 0 0 0 0 0 0 0 
0 0 0 0 0 0 0 0 0 
0 0 0 0 0 0 0 0 0 
0 0 0 0 0 0 0 0 0 
0 0 0 0 0 0 0 0 0 
0 0 0 0 0 0 0 0 0 
0 0 0 0 0 0 0 0 0 
0 0 0 0 0 0 0 0 0 
0 0 0 0 0 0 0 0 0 
0 0 0 0 0 0 0 0 0 
0 0 0 0 0 0 0 0 0 
0 0 0 0 0 0 0 0 0 
0 0 0 0 0 0 0 0 0 
0 0 0 0 0 0 0 0 0 
0 0 0 0 0 0 0 0 0 
0 0 0 0 0 0 0 0 0 
0 0 0 0 0 0 0 0 0 
0 0 0 0 0 0 0 0 0 
0 0 0 0 0 0 0 0 0 
0 0 0 0 0 0 0 0 0 
0 0 0 0 0 0 0 0 0 
0 0 0 0 0 0 0 0 0 
0 0 0 0 0 0 0 0 0 
0 0 0 0 0 0 0 0 0 
0 0 0 0 0 0 0 0 0 
0 0 0 0 0 0 0 0 0 
0 0 0 0 0 0 0 0 0 
0 0 0 0 0 0 0 0 0 
0 0 0 0 0 0 0 0 0 
0 0 0 0 0 0 0 0 0 
0 0 0 0 0 0 0 0 0 
0 0 0 0 0 0 0 0 0 
0 0 0 0 0 0 0 0 0 
0 0 0 0 0 0 0 0 0 
0 0 0 0 0 0 0 0 0 
0 0 0 0 0 0 0 0 0 
0 0 0 0 0 0 0 0 0 
0 0 0 0 0 0 0 0 0 
0 0 0 0 0 0 0 0 0 
0 0 0 0 0 0 0 0 0 
0 0 0 0 0 0 0 0 0 
0 0 0 0 0 0 0 0 0 
0 0 0 0 0 0 0 0 0 
0 0 0 0 0 0 0 0 0 
0 0 0 0 0 0 0 0 0 
0 0 0 0 0 0 0 0 0 
0 0 0 0 0 0 0 0 0 
0 0 0 0 0 0 0 0 0 
0 0 0 0 0 0 0 0 0 
0 0 0 0 0 0 0 0 0 
0 0 0 0 0 0 0 0 0 
0 0 0 0 0 0 0 0 0 
0 0 0 0 0 0 0 0 0 
0 0 0 0 0 0 0 0 0 
0 0 0 0 0 0 0 0 0 
0 0 0 0 0 0 0 0 0 
0 0 0 0 0 0 0 0 0 
0 0 0 0 0 0 0 0 0 
0 0 0 0 0 0 0 0 0 
0 0 0 0 0 0 0 0 0 
0 0 0 0 0 0 0 0 0 
0 0 0 0 0 0 0 0 0 
0 0 0 0 0 0 0 0 0 
0 0 0 0 0 0 0 0 0 
0 0 0 0 0 0 0 0 0 
0 0 0 0 0 0 0 0 0 
0 0 0 0 0 0 0 0 0 
0 0 0 0 0 0 0 0 0 
0 0 0 0 0 0 0 0 0 
0 0 0 0 0 0 0 0 0 
0 0 0 0 0 0 0 0 0 
0 0 0 0 0 0 0 0 0 
0 0 0 0 0 0 0 0 0 
0 0 0 0 0 0 0 0 0 
0 0 0 0 0 0 0 0 0 
0 0 0 0 0 0 0 0 0 
0 0 0 0 0 0 0 0 0 
0 0 0 0 0 0 0 0 0 
0 0 0 0 0 0 0 0 0 
0 0 0 0 0 0 0 0 0 
0 0 0 0 0 0 0 0 0 
0 0 0 0 0 0 0 0 0 
0 0 0 0 0 0 0 0 0 
0 0 0 0 0 0 0 0 0 
0 0 0 0 0 0 0 0 0 
0 0 0 0 0 0 0 0 0 
0 0 0 0 0 0 0 0 0 
0 0 0 0 0 0 0 0 0 
0 0 0 0 0 0 0 0 0 
0 0 0 0 0 0 0 0 0 
0 0 0 0 0 0 0 0 0 
0 0 0 0 0 0 0 0 0 
0 0 0 0 0 0 0 0 0 
0 0 0 0 0 0 0 0 0 
0 0 0 0 0 0 0 0 0 
0 0 0 0 0 0 0 0 0 
0 0 0 0 0 0 0 0 0 
0 0 0 0 0 0 0 0 0 
0 0 0 0 0 0 0 0 0 
0 0 0 0 0 0 0 0 0 
0 0 0 0 0 0 0 0 0 
0 0 0 0 0 0 0 0 0 
0 0 0 0 0 0 0 0 0 
0 0 0 0 0 0 0 0 0 
0 0 0 0 0 0 0 0 0 
0 0 0 0 0 0 0 0 0 
0 0 0 0 0 0 0 0 0 
0 0 0 0 0 0 0 0 0 
0 0 0 0 0 0 0 0 0 
0 0 0 0 0 0 0 0 0 
0 0 0 0 0 0 0 0 0 
0 0 0 0 0 0 0 0 0 
0 0 0 0 0 0 0 0 0 
0 9 9 9 1 1 1 1 1 
1 1 1 11 11 11 3 3 3 
3 12 12 12 4 4 5 5 5 
5 5 5 6 6 6 6 7 7 
7 7 7 7 15 17 17 17 0 
0 0 0 0 0 0 0 0 0 
0 0 0 0 0 0 0 0 0 
0 0 0 0 0 0 0 0 0 
0 0 0 0 0 0 0 0 0 
0 0 0 0 0 0 0 0 0 
0 0 0 0 0 0 0 0 0 
0 9 9 9 9 1 1 1 1 
1 1 1 1 11 11 11 3 3 
3 3 12 12 12 4 4 5 5 
5 5 5 5 6 6 6 6 7 
7 7 7 7 7 15 17 17 17 
17 0 0 0 0 0 0 0 0 
0 0 0 0 0 0 0 0 0 
0 0 0 0 0 0 0 0 0 
0 0 0 0 0 0 0 0 0 
0 0 0 0 0 0 0 0 0 
0 0 0 0 0 0 0 0 0 
0 9 9 9 9 9 2 1 1 
1 1 1 1 2 11 11 11 3 
3 3 3 12 12 12 4 4 5 
5 5 5 5 5 6 6 6 6 
7 7 7 7 7 15 15 17 17 
17 17 17 0 0 0 0 0 0 
0 0 0 0 0 0 0 0 0 
0 0 0 0 0 0 0 0 0 
0 0 0 0 0 0 0 0 0 
0 0 0 0 0 0 0 0 0 
0 0 0 0 0 0 0 0 0 
0 9 9 9 9 9 9 2 2 
2 2 2 2 2 2 11 11 11 
3 3 3 3 12 12 12 4 4 
4 5 5 5 5 5 6 6 6 
6 7 7 7 7 15 15 15 17 
17 17 17 17 18 0 0 0 0 
0 0 0 0 0 0 0 0 0 
0 0 0 0 0 0 0 0 0 
0 0 0 0 0 0 0 0 0 
0 0 0 0 0 0 0 0 0 
0 0 0 0 0 0 0 0 0 
0 9 9 9 9 9 9 9 2 
2 2 2 2 2 2 2 11 11 
11 11 3 3 3 12 12 12 4 
4 4 4 4 5 5 6 6 6 
6 6 7 7 7 15 15 15 15 
17 17 17 17 17 18 18 0 0 
0 0 0 0 0 0 0 0 0 
0 0 0 0 0 0 0 0 0 
0 0 0 0 0 0 0 0 0 
0 0 0 0 0 0 0 0 0 
0 0 0 0 0 0 0 0 0 
0 8 8 8 8 8 8 8 10 
10 10 10 10 2 2 2 2 11 
11 11 11 3 3 3 12 12 12 
4 4 4 4 4 4 6 6 6 
6 6 6 7 7 15 15 15 15 
15 17 17 17 17 17 18 18 18 
0 0 0 0 0 0 0 0 0 
0 0 0 0 0 0 0 0 0 
0 0 0 0 0 0 0 0 0 
0 0 0 0 0 0 0 0 0 
0 0 0 0 0 0 0 0 0 
0 19 19 19 8 8 8 8 8 
10 10 10 10 10 2 2 2 2 
11 11 11 11 3 3 12 12 12 
12 4 4 4 4 14 14 14 14 
14 14 14 14 15 15 15 15 15 
15 15 17 17 17 17 17 18 18 
18 18 0 0 0 0 0 0 0 
0 0 0 0 0 0 0 0 0 
0 0 0 0 0 0 0 0 0 
0 0 0 0 0 0 0 0 0 
0 0 0 0 0 0 0 0 0 
0 19 19 19 19 8 8 8 8 
8 10 10 10 10 10 2 2 2 
2 11 11 11 11 11 12 12 12 
12 12 12 14 14 14 14 14 14 
14 14 14 14 14 15 15 15 15 
15 15 15 17 29 29 29 30 18 
18 18 18 18 0 0 0 0 0 
0 0 0 0 0 0 0 0 0 
0 0 0 0 0 0 0 0 0 
0 0 0 0 0 0 0 0 0 
0 0 0 0 0 0 0 0 0 
0 19 19 19 19 19 8 8 8 
8 8 10 10 10 10 10 23 23 
23 23 23 13 13 13 13 13 13 
13 13 13 13 13 14 14 14 14 
14 14 14 14 14 14 16 16 16 
16 16 16 16 29 29 29 29 30 
30 30 18 18 18 18 0 0 0 
0 0 0 0 0 0 0 0 0 
0 0 0 0 0 0 0 0 0 
0 0 0 0 0 0 0 0 0 
0 0 0 0 0 0 0 0 0 
0 33 19 19 19 19 19 8 8 
8 8 8 10 10 10 10 22 23 
23 23 23 23 13 13 13 13 13 
13 13 13 13 13 13 26 27 27 
27 27 27 27 27 27 27 16 16 
16 16 16 16 16 29 29 29 29 
30 30 30 30 18 18 18 31 0 
0 0 0 0 0 0 0 0 0 
0 0 0 0 0 0 0 0 0 
0 0 0 0 0 0 0 0 0 
0 0 0 0 0 0 0 0 0 
0 33 33 19 19 19 19 19 19 
8 8 8 8 10 10 22 22 22 
23 23 23 23 23 23 24 24 24 
24 24 24 13 13 13 13 26 26 
26 26 26 27 27 27 27 27 16 
16 16 16 16 16 16 29 29 29 
29 30 30 30 30 30 18 18 31 
31 0 0 0 0 0 0 0 0 
0 0 0 0 0 0 0 0 0 
0 0 0 0 0 0 0 0 0 
0 0 0 0 0 0 0 0 0 
0 33 33 33 19 19 19 20 20 
20 21 21 21 21 21 22 22 22 
22 22 23 23 23 23 23 24 24 
24 24 24 24 13 13 13 13 26 
26 26 26 26 26 27 27 27 27 
16 16 16 16 16 16 16 29 29 
29 29 30 30 30 30 30 30 31 
31 31 31 0 0 0 0 0 0 
0 0 0 0 0 0 0 0 0 
0 0 0 0 0 0 0 0 0 
0 0 0 0 0 0 0 0 0 
0 33 33 33 33 19 19 20 20 
20 20 21 21 21 21 21 22 22 
22 22 22 23 23 23 23 52 52 
24 24 24 24 24 13 25 25 25 
26 26 26 26 26 26 27 27 27 
27 16 28 28 28 28 28 16 29 
29 29 29 30 30 30 30 30 43 
43 31 31 31 31 0 0 0 0 
0 0 0 0 0 0 0 0 0 
0 0 0 0 0 0 0 0 0 
0 0 0 0 0 0 0 0 0 
0 33 33 33 33 33 19 20 20 
20 20 20 21 21 21 21 21 22 
22 22 22 22 22 22 22 36 52 
52 52 24 24 24 24 25 25 25 
25 39 26 26 26 26 26 27 27 
27 27 40 28 28 28 28 28 42 
29 29 29 29 29 43 43 43 43 
43 43 31 31 31 31 31 0 0 
0 0 0 0 0 0 0 0 0 
0 0 0 0 0 0 0 0 0 
0 0 0 0 0 0 0 0 0 
0 33 33 33 33 33 33 32 20 
20 20 20 20 21 21 21 21 21 
22 22 22 22 22 22 22 36 36 
36 36 52 52 52 52 52 25 25 
25 25 39 39 39 39 39 39 40 
40 40 40 40 28 28 28 28 28 
42 42 42 42 42 42 42 43 43 
43 43 43 31 31 31 31 59 59 
0 0 0 0 0 0 0 0 0 
0 0 0 0 0 0 0 0 0 
0 0 0 0 0 0 0 0 0 
0 45 45 45 33 33 33 33 32 
20 20 20 20 20 21 21 21 21 
21 21 35 35 35 35 35 36 36 
36 36 36 36 52 52 52 52 25 
25 25 25 39 39 39 39 39 39 
40 40 40 40 40 28 28 28 28 
28 42 42 42 42 42 42 42 43 
43 43 43 43 31 31 31 59 59 
59 59 0 0 0 0 0 0 0 
0 0 0 0 0 0 0 0 0 
0 0 0 0 0 0 0 0 0 
0 45 45 45 45 45 45 45 32 
32 32 20 20 20 20 21 21 34 
34 34 34 34 35 35 35 35 50 
36 36 36 36 36 52 52 52 52 
25 25 25 25 39 39 39 39 39 
39 40 40 40 40 40 40 28 28 
28 28 42 42 42 42 42 42 42 
42 43 43 43 43 31 31 31 59 
59 59 59 59 0 0 0 0 0 
0 0 0 0 0 0 0 0 0 
0 0 0 0 0 0 0 0 0 
0 0 45 45 45 45 45 45 46 
46 32 32 32 32 32 32 34 34 
34 34 34 34 34 35 35 35 35 
50 36 36 36 36 36 52 52 52 
52 52 52 25 39 39 39 39 39 
39 39 40 40 40 40 40 40 40 
40 40 42 42 42 42 57 57 57 
57 57 57 43 43 43 43 59 59 
59 59 59 59 59 0 0 0 0 
0 0 0 0 0 0 0 0 0 
0 0 0 0 0 0 0 0 0 
0 0 0 45 45 45 45 45 45 
46 46 46 32 32 32 32 32 34 
34 34 34 34 34 34 35 35 35 
35 50 50 50 50 50 50 37 37 
37 52 52 52 38 38 38 38 38 
38 38 38 54 54 54 54 54 54 
40 41 41 41 41 41 57 57 57 
57 57 57 57 44 44 44 44 44 
59 59 59 59 59 59 0 0 0 
0 0 0 0 0 0 0 0 0 
0 0 0 0 0 0 0 0 0 
0 0 0 0 45 45 45 45 45 
46 46 46 46 32 32 32 32 32 
34 34 34 34 34 34 34 35 35 
35 35 50 50 50 50 50 50 37 
37 37 37 37 38 38 38 38 38 
38 38 38 38 54 54 54 54 54 
54 55 41 41 41 41 41 56 57 
57 57 57 57 57 44 44 44 44 
44 44 44 59 59 59 59 0 0 
0 0 0 0 0 0 0 0 0 
0 0 0 0 0 0 0 0 0 
0 0 0 0 0 60 60 60 45 
45 46 46 46 46 32 32 32 32 
32 47 48 48 48 48 48 35 35 
35 35 35 50 50 50 50 50 50 
37 37 37 37 67 67 38 38 38 
38 38 38 38 38 54 54 54 54 
55 55 55 41 41 41 41 41 56 
57 57 57 57 57 57 58 58 58 
58 44 44 44 44 44 44 74 0 
0 0 0 0 0 0 0 0 0 
0 0 0 0 0 0 0 0 0 