# vtk DataFile Version 5.1
vtk output
ASCII
DATASET STRUCTURED_POINTS
DIMENSIONS 100 100 1
SPACING 1 1 1
ORIGIN 0 0 0
POINT_DATA 10000
FIELD FieldData 3
CellType 1 10000 char
0 0 0 0 0 0 0 0 0 
0 0 0 0 0 0 0 0 0 
0 0 0 0 0 0 0 0 0 
0 0 0 0 0 0 0 0 0 
0 0 0 0 0 0 0 0 0 
0 0 0 0 0 0 0 0 0 
0 0 0 0 0 0 0 0 0 
0 0 0 0 0 0 0 0 0 
0 0 0 0 0 0 0 0 0 
0 0 0 0 0 0 0 0 0 
0 0 0 0 0 0 0 0 0 
0 0 0 0 0 0 0 0 0 
0 0 0 0 0 0 0 0 0 
0 0 0 0 0 0 0 0 0 
0 0 0 0 0 0 0 0 0 
0 0 0 0 0 0 0 0 0 
0 0 0 0 0 0 0 0 0 
0 0 0 0 0 0 0 0 0 
0 0 0 0 0 0 0 0 0 
0 0 0 0 0 0 0 0 0 
0 0 0 0 0 0 0 0 0 
0 0 0 0 0 0 0 0 0 
0 0 0 0 0 0 0 0 0 
0 0 0 0 0 0 0 0 0 
0 0 0 0 0 0 0 0 0 
0 0 0 0 0 0 0 0 0 
0 0 0 0 0 0 0 0 0 
0 0 0 0 0 0 0 0 0 
0 0 0 0 0 0 0 0 0 
0 0 0 0 0 0 0 0 0 
0 0 0 0 0 0 0 0 0 
0 0 0 0 0 0 0 0 0 
0 0 0 0 0 0 0 0 0 
0 0 0 0 0 0 0 0 0 
0 0 0 0 0 0 0 0 0 
0 0 0 0 0 0 0 0 0 
0 0 0 0 0 0 0 0 0 
0 0 0 0 0 0 0 0 0 
0 0 0 0 0 0 0 0 0 
0 0 0 0 0 0 0 0 0 
0 0 0 0 0 0 0 0 0 
0 0 0 0 0 0 0 0 0 
0 0 0 0 0 0 0 0 0 
0 0 0 0 0 0 0 0 0 
0 0 0 0 0 0 0 0 0 
0 0 0 0 0 0 0 0 0 
0 0 0 0 0 0 0 0 0 
0 0 0 0 0 0 0 0 0 
0 0 0 0 0 0 0 0 0 
0 0 0 0 0 0 0 0 0 
0 0 0 0 0 0 0 0 0 
0 0 0 0 0 0 0 0 0 
0 0 0 0 0 0 0 0 0 
0 0 0 0 0 0 0 0 0 
0 0 0 0 0 0 0 0 0 
0 0 0 0 0 0 0 0 0 
0 0 0 0 0 0 0 0 0 
0 0 0 0 0 0 0 0 0 
0 0 0 0 0 0 0 0 0 
0 0 0 0 0 0 0 0 0 
0 0 0 0 0 0 0 0 0 
0 0 0 0 0 0 0 0 0 
0 0 0 0 0 0 0 0 0 
0 0 0 0 0 0 0 0 0 
0 0 0 0 0 0 0 0 0 
0 0 0 0 0 0 0 0 0 
0 0 0 0 0 0 0 0 0 
0 0 0 0 0 0 0 0 0 
0 0 0 0 0 0 0 0 0 
0 0 0 0 0 0 0 0 0 
0 0 0 0 0 0 0 0 0 
0 0 0 0 0 0 0 0 0 
0 0 0 0 0 0 0 0 0 
0 0 0 0 0 0 0 0 0 
0 0 0 0 0 0 0 0 0 
0 0 0 0 0 0 0 0 0 
0 0 0 0 0 0 0 0 0 
0 0 0 0 0 0 0 0 0 
0 0 0 0 0 0 0 0 0 
0 0 0 0 0 0 0 0 0 
0 0 0 0 0 0 0 0 0 
0 0 0 0 0 0 0 0 0 
0 0 0 0 0 0 0 0 0 
0 0 0 0 0 0 0 0 0 
0 0 0 0 0 0 0 0 0 
0 0 0 0 0 0 0 0 0 
0 0 0 0 0 0 0 0 0 
0 0 0 0 0 0 0 0 0 
0 0 0 0 0 0 0 0 0 
0 0 0 0 0 0 0 0 0 
0 0 0 0 0 0 0 0 0 
0 0 0 0 0 0 0 0 0 
0 0 0 0 0 0 0 0 0 
0 0 0 0 0 0 0 0 0 
0 0 0 0 0 0 0 0 0 
0 0 0 0 0 0 0 0 0 
0 0 0 0 0 0 0 0 0 
0 0 0 0 0 0 0 0 0 
0 0 0 0 0 0 0 0 0 
0 0 0 0 0 0 0 0 0 
0 0 0 0 0 0 0 0 0 
0 0 0 0 0 0 0 0 0 
0 0 0 0 0 0 0 0 0 
0 0 0 0 0 0 0 0 0 
0 0 0 0 0 0 0 0 0 
0 0 0 0 0 0 0 0 0 
0 0 0 0 0 0 0 0 0 
0 0 0 0 0 0 0 0 0 
0 0 0 0 0 0 0 0 0 
0 0 0 0 0 0 0 0 0 
0 0 0 0 0 0 0 0 0 
0 0 0 0 0 0 0 0 0 
0 0 0 0 0 0 0 0 0 
0 0 0 0 0 0 0 0 0 
0 0 0 0 0 0 0 0 0 
0 0 0 0 0 0 0 0 0 
0 0 0 0 0 0 0 0 0 
0 0 0 0 0 0 0 0 0 
0 0 0 0 0 0 0 0 0 
0 0 0 0 0 0 0 0 0 
0 0 0 0 0 0 0 0 0 
0 0 0 0 0 0 0 0 0 
0 0 0 0 0 0 0 0 0 
0 0 0 0 0 0 0 0 0 
0 0 0 0 0 0 0 0 0 
0 0 0 0 0 0 0 0 0 
0 0 0 0 0 0 0 0 0 
0 0 0 0 0 0 0 0 0 
0 0 0 0 0 0 0 0 0 
0 0 0 0 0 0 0 0 0 
0 0 0 0 0 0 0 0 0 
0 0 0 0 0 0 0 0 0 
0 0 0 0 0 0 0 0 0 
0 0 0 0 0 0 0 0 0 
0 0 0 0 0 0 0 0 0 
0 0 0 0 0 0 0 0 0 
0 0 0 0 0 0 0 0 0 
0 0 0 0 0 0 0 0 0 
0 0 0 0 0 0 0 0 0 
0 0 0 0 0 0 0 0 0 
0 0 0 0 0 0 0 0 0 
0 0 0 0 0 0 0 0 0 
0 0 0 0 0 0 0 0 0 
0 0 0 0 0 0 0 0 0 
0 0 0 0 0 0 0 0 0 
0 0 0 0 0 0 0 0 0 
0 0 0 0 0 0 0 0 0 
0 0 0 0 0 0 0 0 0 
0 0 0 0 0 0 0 0 0 
0 0 0 0 0 0 0 0 0 
0 0 0 0 0 0 0 0 0 
0 0 0 0 0 0 0 0 0 
0 0 0 0 0 0 0 0 0 
0 0 0 0 0 0 0 0 0 
0 0 0 0 0 0 0 0 0 
0 0 0 0 0 0 0 0 0 
0 0 0 0 0 0 0 0 0 
0 0 0 0 0 0 0 0 0 
0 0 0 0 0 0 0 0 0 
0 0 0 0 0 0 0 0 0 
0 0 0 0 0 0 0 0 0 
0 0 0 0 0 0 0 0 0 
0 0 0 0 0 0 0 0 0 
0 0 0 0 0 0 0 0 0 
0 0 0 0 0 0 0 0 0 
0 0 0 0 0 0 0 0 0 
0 0 0 0 0 0 0 0 0 
0 0 0 0 0 0 0 0 0 
0 0 0 0 0 0 0 0 0 
0 0 0 0 0 0 0 0 0 
0 1 1 1 1 2 2 2 2 
2 1 2 2 2 2 2 2 2 
2 2 2 1 1 1 1 2 1 
1 1 1 1 1 1 1 2 1 
1 1 1 1 1 1 1 0 0 
0 0 0 0 0 0 0 0 0 
0 0 0 0 0 0 0 0 0 
0 0 0 0 0 0 0 0 0 
0 0 0 0 0 0 0 0 0 
0 0 0 0 0 0 0 0 0 
0 0 0 0 0 0 0 0 0 
0 1 1 1 1 1 2 2 2 
2 2 1 2 2 2 2 2 1 
2 2 2 2 1 1 1 1 2 
1 1 1 1 1 1 1 1 2 
1 1 1 1 1 1 1 1 2 
2 0 0 0 0 0 0 0 0 
0 0 0 0 0 0 0 0 0 
0 0 0 0 0 0 0 0 0 
0 0 0 0 0 0 0 0 0 
0 0 0 0 0 0 0 0 0 
0 0 0 0 0 0 0 0 0 
0 1 1 1 1 1 1 2 2 
2 2 2 1 2 2 2 2 2 
1 2 2 2 2 1 1 1 1 
2 1 1 1 1 1 1 1 1 
2 1 1 1 1 1 1 1 1 
2 2 2 0 0 0 0 0 0 
0 0 0 0 0 0 0 0 0 
0 0 0 0 0 0 0 0 0 
0 0 0 0 0 0 0 0 0 
0 0 0 0 0 0 0 0 0 
0 0 0 0 0 0 0 0 0 
0 2 2 1 1 1 1 1 1 
2 2 2 2 1 2 2 2 2 
2 1 2 2 2 2 1 1 1 
1 2 2 2 2 2 2 2 2 
2 2 1 1 1 1 1 1 1 
1 2 2 2 2 0 0 0 0 
0 0 0 0 0 0 0 0 0 
0 0 0 0 0 0 0 0 0 
0 0 0 0 0 0 0 0 0 
0 0 0 0 0 0 0 0 0 
0 0 0 0 0 0 0 0 0 
0 1 2 2 1 1 1 1 1 
1 1 2 2 2 1 1 1 1 
1 1 1 2 2 2 2 1 1 
1 1 2 2 2 2 2 2 2 
2 2 2 2 2 2 2 2 2 
2 1 2 2 2 2 2 0 0 
0 0 0 0 0 0 0 0 0 
0 0 0 0 0 0 0 0 0 
0 0 0 0 0 0 0 0 0 
0 0 0 0 0 0 0 0 0 
0 0 0 0 0 0 0 0 0 
0 1 1 2 2 2 1 1 2 
2 2 2 2 2 2 1 1 1 
1 1 1 1 2 2 2 2 1 
1 1 1 2 1 1 1 1 1 
1 1 1 1 2 2 2 2 2 
2 2 1 2 2 2 2 2 2 
0 0 0 0 0 0 0 0 0 
0 0 0 0 0 0 0 0 0 
0 0 0 0 0 0 0 0 0 
0 0 0 0 0 0 0 0 0 
0 0 0 0 0 0 0 0 0 
0 1 1 1 2 2 2 2 2 
2 2 2 2 1 1 2 1 1 
1 1 1 1 1 2 2 2 2 
1 1 1 1 2 1 1 1 1 
1 1 1 1 1 2 2 2 2 
2 2 2 2 2 2 2 2 2 
2 2 0 0 0 0 0 0 0 
0 0 0 0 0 0 0 0 0 
0 0 0 0 0 0 0 0 0 
0 0 0 0 0 0 0 0 0 
0 0 0 0 0 0 0 0 0 
0 1 1 1 1 2 2 2 1 
1 2 2 2 2 1 1 1 2 
2 2 2 2 2 2 2 2 2 
1 1 1 1 2 2 2 1 1 
1 1 1 1 1 1 2 1 1 
1 1 1 1 1 1 1 1 1 
1 1 1 1 0 0 0 0 0 
0 0 0 0 0 0 0 0 0 
0 0 0 0 0 0 0 0 0 
0 0 0 0 0 0 0 0 0 
0 0 0 0 0 0 0 0 0 
0 1 1 1 1 1 2 2 2 
1 1 2 2 2 2 1 1 1 
2 2 2 2 2 1 1 1 1 
2 2 2 1 2 2 2 2 2 
2 2 2 2 2 2 2 2 1 
1 1 1 1 2 2 1 1 1 
1 1 1 1 1 2 0 0 0 
0 0 0 0 0 0 0 0 0 
0 0 0 0 0 0 0 0 0 
0 0 0 0 0 0 0 0 0 
0 0 0 0 0 0 0 0 0 
0 1 1 1 1 1 1 2 2 
2 1 1 1 2 2 2 1 1 
1 2 2 2 2 1 1 1 1 
2 2 2 2 1 2 2 2 2 
2 2 1 1 1 2 2 2 2 
1 1 1 1 2 2 2 1 1 
1 1 1 1 1 1 2 2 0 
0 0 0 0 0 0 0 0 0 
0 0 0 0 0 0 0 0 0 
0 0 0 0 0 0 0 0 0 
0 0 0 0 0 0 0 0 0 
0 2 2 1 1 1 1 1 2 
2 2 1 1 1 1 2 2 1 
1 1 2 2 2 2 1 1 1 
2 2 2 2 2 1 2 2 2 
2 2 2 1 1 1 2 2 2 
2 1 1 1 2 2 2 2 1 
1 2 2 2 2 1 1 2 2 
2 0 0 0 0 0 0 0 0 
0 0 0 0 0 0 0 0 0 
0 0 0 0 0 0 0 0 0 
0 0 0 0 0 0 0 0 0 
0 1 2 2 2 2 2 2 2 
2 2 2 1 1 1 1 2 2 
1 1 1 2 2 2 1 1 1 
2 2 2 2 2 1 1 2 2 
2 2 2 2 1 1 1 1 2 
2 2 1 1 1 2 2 2 2 
2 2 2 2 2 2 2 1 2 
2 2 2 0 0 0 0 0 0 
0 0 0 0 0 0 0 0 0 
0 0 0 0 0 0 0 0 0 
0 0 0 0 0 0 0 0 0 
0 1 1 2 2 2 2 2 1 
1 1 1 2 1 1 1 1 1 
2 1 1 1 2 2 2 1 1 
1 2 2 2 2 1 1 1 2 
1 1 1 1 1 1 1 1 1 
2 2 2 1 1 1 2 2 2 
2 1 1 2 2 2 2 2 1 
2 2 2 2 2 0 0 0 0 
0 0 0 0 0 0 0 0 0 
0 0 0 0 0 0 0 0 0 
0 0 0 0 0 0 0 0 0 
0 1 1 1 2 2 2 2 1 
1 1 1 1 2 1 1 1 1 
1 2 1 1 1 1 2 1 1 
1 1 2 2 2 1 1 1 1 
2 1 1 1 1 2 1 1 1 
1 2 2 2 2 2 2 2 2 
2 1 1 1 1 2 2 2 2 
2 2 2 2 2 2 2 0 0 
0 0 0 0 0 0 0 0 0 
0 0 0 0 0 0 0 0 0 
0 0 0 0 0 0 0 0 0 
0 1 1 1 1 2 2 2 2 
1 1 1 1 1 2 2 2 2 
2 2 2 2 1 1 1 2 1 
1 1 1 2 1 1 1 1 1 
2 2 1 1 1 1 2 1 1 
1 1 2 2 2 2 1 1 1 
1 1 1 2 2 2 2 1 1 
1 1 1 2 2 2 2 2 2 
0 0 0 0 0 0 0 0 0 
0 0 0 0 0 0 0 0 0 
0 0 0 0 0 0 0 0 0 
0 1 1 1 1 1 2 2 2 
2 1 1 1 1 1 2 2 2 
2 2 2 2 2 1 1 2 2 
2 2 2 2 2 1 1 1 1 
2 2 2 1 1 1 1 2 2 
2 2 1 1 1 1 2 1 1 
1 1 1 2 2 2 2 2 1 
1 1 1 1 1 1 1 1 1 
1 1 0 0 0 0 0 0 0 
0 0 0 0 0 0 0 0 0 
0 0 0 0 0 0 0 0 0 
0 1 1 1 1 1 1 2 2 
2 2 1 1 1 1 1 2 2 
2 2 2 2 2 2 2 2 2 
2 2 2 2 2 2 1 1 1 
2 2 2 2 2 1 1 1 2 
2 2 2 1 1 1 1 2 1 
1 1 1 1 2 2 2 2 2 
2 2 2 2 2 1 1 1 1 
1 1 1 0 0 0 0 0 0 
0 0 0 0 0 0 0 0 0 
0 0 0 0 0 0 0 0 0 
0 0 1 1 1 2 2 2 1 
1 1 1 2 2 2 2 2 1 
1 1 1 1 2 2 2 1 1 
1 1 2 2 2 2 2 1 1 
2 2 2 2 2 2 1 1 1 
2 2 2 2 1 1 1 1 2 
2 1 1 1 1 2 2 2 2 
1 2 2 2 2 2 1 1 1 
1 2 2 2 2 0 0 0 0 
0 0 0 0 0 0 0 0 0 
0 0 0 0 0 0 0 0 0 
0 0 0 2 2 2 2 2 2 
1 1 1 1 2 2 2 2 2 
1 1 1 1 1 1 1 1 1 
1 1 1 1 1 2 2 2 2 
2 2 2 2 2 2 2 1 1 
1 2 2 2 2 1 1 1 2 
2 2 1 1 1 1 1 2 2 
2 1 2 2 2 2 2 1 1 
2 2 2 2 2 2 0 0 0 
0 0 0 0 0 0 0 0 0 
0 0 0 0 0 0 0 0 0 
0 0 0 0 2 2 2 2 2 
2 1 1 1 1 2 2 2 2 
2 1 1 1 1 1 1 2 2 
1 1 1 1 1 1 1 2 2 
1 1 1 1 1 1 1 1 2 
2 2 2 2 2 2 1 1 1 
2 2 2 2 2 2 2 2 2 
1 1 1 2 2 2 2 2 1 
2 2 2 2 2 2 2 0 0 
0 0 0 0 0 0 0 0 0 
0 0 0 0 0 0 0 0 0 
0 0 0 0 0 1 2 2 2 
2 2 1 1 1 2 2 2 2 
2 2 1 1 1 1 1 1 2 
2 2 1 1 1 1 1 1 1 
1 1 1 1 1 1 1 1 1 
2 1 1 1 1 1 1 1 1 
1 2 2 2 1 1 2 2 2 
2 2 1 1 1 2 2 2 2 
2 2 2 2 2 2 2 2 0 
0 0 0 0 0 0 0 0 0 
0 0 0 0 0 0 0 0 0 
0 0 0 0 0 0 1 1 1 
2 2 2 1 1 1 2 1 1 
1 1 1 1 1 1 1 1 2 
2 2 2 2 2 2 1 2 2 
2 2 1 1 1 1 1 1 1 
1 2 1 1 1 1 2 2 1 
1 2 2 2 2 1 1 2 2 
2 2 2 1 1 1 1 1 1 
1 2 1 1 1 1 1 1 1 
0 0 0 0 0 0 0 0 0 
0 0 0 0 0 0 0 0 0 
0 0 0 0 0 0 0 1 1 
1 1 2 2 1 1 1 2 1 
1 1 1 2 2 2 2 2 2 
2 2 2 2 2 2 2 1 2 
2 2 2 2 2 2 1 1 1 
1 1 1 1 1 1 1 2 2 
2 2 2 2 2 2 1 1 2 
2 2 2 2 1 1 1 1 1 
1 2 2 1 1 1 1 1 2 
2 0 0 0 0 0 0 0 0 
0 0 0 0 0 0 0 0 0 
0 0 0 0 0 0 0 0 1 
1 1 1 2 2 2 2 2 2 
1 1 1 1 2 2 2 1 1 
2 2 2 2 2 1 1 1 1 
2 2 2 2 1 1 1 1 2 
2 2 2 1 1 1 1 2 2 
2 1 1 1 2 2 2 1 1 
1 2 2 2 2 1 1 1 1 
1 1 2 1 1 1 1 1 2 
2 2 0 0 0 0 0 0 0 
0 0 0 0 0 0 0 0 0 
0 0 0 0 0 0 0 0 0 
1 1 1 1 2 1 1 1 1 
1 1 1 1 1 2 1 1 1 
1 1 1 1 1 1 1 1 1 
1 2 2 2 2 1 1 1 1 
2 2 2 2 1 1 1 1 2 
2 2 1 1 1 1 1 2 1 
1 1 1 1 1 2 1 1 1 
1 1 1 2 1 1 1 1 2 
2 2 2 0 0 0 0 0 0 
0 0 0 0 0 0 0 0 0 
0 0 0 0 0 0 0 0 0 
0 1 1 1 1 2 1 1 1 
1 2 2 2 2 2 2 1 1 
1 1 1 1 2 2 1 1 1 
1 1 2 2 2 2 1 1 1 
1 2 2 2 2 1 2 2 2 
2 2 2 1 1 1 1 1 2 
1 1 1 1 1 1 2 2 2 
2 2 2 2 2 2 1 1 1 
2 2 2 2 0 0 0 0 0 
0 0 0 0 0 0 0 0 0 
0 0 0 0 0 0 0 0 0 
0 0 1 1 1 2 2 1 1 
1 1 2 2 2 2 2 2 1 
1 1 1 1 2 2 2 1 1 
1 1 2 2 2 2 2 1 1 
1 1 2 2 2 2 1 2 2 
2 2 2 2 1 1 1 1 2 
2 2 1 1 1 1 2 2 2 
2 2 1 1 2 2 2 2 2 
2 2 2 2 2 0 0 0 0 
0 0 0 0 0 0 0 0 0 
0 0 0 0 0 0 0 0 0 
0 0 0 2 2 2 2 2 1 
1 1 1 2 2 2 2 2 2 
1 1 1 1 2 2 2 2 1 
1 2 1 1 1 1 1 2 1 
1 1 1 2 2 2 2 1 1 
1 1 2 2 2 1 1 1 2 
2 2 2 2 2 1 1 2 2 
2 2 1 1 1 2 2 2 2 
2 1 2 2 2 2 0 0 0 
0 0 0 0 0 0 0 0 0 
0 0 0 0 0 0 0 0 0 
0 0 0 0 2 2 2 2 2 
1 1 1 1 1 1 2 2 2 
2 2 2 2 2 2 2 2 2 
1 2 2 1 1 1 1 1 2 
2 1 2 2 2 2 2 2 1 
1 1 1 1 1 1 1 1 1 
2 2 2 2 2 2 2 2 2 
2 2 1 1 1 1 2 2 2 
2 2 1 1 2 2 2 0 0 
0 0 0 0 0 0 0 0 0 
0 0 0 0 0 0 0 0 0 
0 0 0 0 0 2 2 2 2 
2 1 1 1 1 1 1 2 1 
1 1 2 2 2 2 2 2 2 
2 1 2 2 1 1 1 1 1 
2 2 1 2 2 2 2 2 2 
1 1 1 1 1 2 2 2 2 
2 2 2 2 2 2 2 1 1 
2 2 2 1 1 1 1 2 2 
2 2 2 1 1 1 1 1 0 
0 0 0 0 0 0 0 0 0 
0 0 0 0 0 0 0 0 0 
0 0 0 0 0 0 2 2 2 
2 2 1 2 2 2 2 2 2 
1 1 1 2 1 1 1 1 1 
1 1 1 2 2 1 1 1 1 
1 1 1 1 2 1 1 1 1 
1 1 1 1 1 1 2 2 1 
1 1 1 1 1 1 2 1 1 
1 1 2 2 1 1 1 1 2 
2 2 2 2 2 1 1 1 1 
0 0 0 0 0 0 0 0 0 
0 0 0 0 0 0 0 0 0 
0 0 0 0 0 0 0 2 2 
2 2 2 2 2 2 2 2 2 
2 1 1 1 2 1 1 1 1 
1 1 1 1 2 2 2 1 1 
1 2 1 1 1 2 1 1 1 
1 1 2 2 2 2 2 2 2 
1 1 1 1 1 1 1 2 1 
1 1 1 2 2 1 1 1 1 
2 1 1 1 1 2 1 1 1 
1 0 0 0 0 0 0 0 0 
0 0 0 0 0 0 0 0 0 
0 0 0 0 0 0 0 0 1 
1 1 1 1 1 1 2 2 2 
2 2 1 1 1 2 2 1 1 
1 1 1 1 1 2 2 2 2 
2 2 2 1 1 1 2 1 1 
1 1 1 2 2 2 2 2 2 
2 1 1 1 1 1 2 2 2 
2 2 1 1 1 2 1 1 1 
1 1 1 1 1 1 2 1 1 
1 1 0 0 0 0 0 0 0 
0 0 0 0 0 0 0 0 0 
0 0 0 0 0 0 0 0 0 
1 1 1 1 1 1 1 2 2 
2 2 2 1 1 1 2 2 2 
1 1 1 2 2 2 1 1 2 
2 2 2 2 1 1 1 2 1 
1 1 1 1 2 2 2 2 2 
2 2 1 1 1 1 2 2 2 
2 2 2 1 1 1 2 2 2 
2 2 1 1 1 1 1 1 1 
1 1 1 0 0 0 0 0 0 
0 0 0 0 0 0 0 0 0 
0 0 0 0 0 0 0 0 0 
0 1 1 1 1 1 1 1 1 
2 1 1 1 1 1 1 2 2 
2 1 1 2 2 2 2 1 1 
1 2 2 2 2 1 1 1 1 
1 1 1 1 1 2 1 1 1 
1 1 1 1 1 2 2 2 2 
2 2 2 2 1 1 1 2 2 
2 2 2 1 1 1 1 1 2 
2 2 2 1 0 0 0 0 0 
0 0 0 0 0 0 0 0 0 
0 0 0 0 0 0 0 0 0 
0 0 1 1 1 2 2 2 2 
2 2 1 1 1 1 1 1 2 
2 2 2 2 2 2 2 2 1 
1 1 1 2 2 2 1 2 2 
2 2 2 2 2 2 1 1 1 
1 1 2 2 2 2 1 1 1 
1 2 2 2 2 1 1 1 2 
2 2 2 2 2 2 2 2 1 
2 2 2 2 1 0 0 0 0 
0 0 0 0 0 0 0 0 0 
0 0 0 0 0 0 0 0 0 
0 0 0 1 1 1 2 2 2 
2 2 2 1 2 2 2 2 1 
2 2 2 1 1 2 2 2 2 
1 1 1 1 2 2 1 1 1 
1 1 2 2 2 2 2 1 1 
1 1 1 2 2 2 2 1 1 
1 1 1 1 1 2 1 1 1 
2 2 2 2 2 1 1 1 1 
1 2 1 1 1 1 0 0 0 
0 0 0 0 0 0 0 0 0 
0 0 0 0 0 0 0 0 0 
0 0 0 0 2 2 2 2 2 
2 2 2 2 2 2 2 2 2 
1 2 2 2 1 1 2 2 2 
2 1 1 1 1 1 1 1 1 
1 1 1 2 2 2 2 2 1 
1 1 1 1 2 2 2 2 1 
1 1 1 1 1 1 2 1 1 
1 2 2 2 2 2 1 1 1 
1 1 2 1 1 1 1 0 0 
0 0 0 0 0 0 0 0 0 
0 0 0 0 0 0 0 0 0 
0 0 0 0 0 2 2 2 1 
2 2 2 2 1 1 2 2 2 
2 2 2 2 2 1 1 1 2 
2 2 1 1 1 1 2 2 1 
1 1 1 1 2 2 2 2 2 
1 1 1 1 1 2 2 2 2 
1 1 1 1 1 1 1 2 2 
2 2 1 1 1 2 2 1 1 
1 1 1 2 1 1 1 1 0 
0 0 0 0 0 0 0 0 0 
0 0 0 0 0 0 0 0 0 
0 0 0 0 0 0 2 2 2 
1 1 1 1 1 1 1 1 1 
2 2 1 1 2 1 1 1 1 
1 2 1 1 1 1 2 2 2 
2 1 1 1 2 2 2 2 2 
2 1 1 1 1 2 2 2 2 
2 2 2 1 2 2 2 2 2 
2 2 2 1 1 1 1 2 1 
1 1 1 1 2 1 1 1 1 
0 0 0 0 0 0 0 0 0 
0 0 0 0 0 0 0 0 0 
0 0 0 0 0 0 0 2 2 
2 1 1 1 1 1 2 2 2 
2 2 1 1 1 2 1 1 1 
1 1 2 2 2 2 2 2 2 
2 2 2 2 1 2 2 1 1 
1 1 2 2 2 2 1 1 1 
1 2 2 2 1 2 2 2 2 
2 2 2 2 1 1 1 1 1 
1 2 2 2 2 2 1 1 1 
1 0 0 0 0 0 0 0 0 
0 0 0 0 0 0 0 0 0 
0 0 0 0 0 0 0 0 2 
2 2 1 1 1 1 1 2 2 
2 2 2 1 1 2 2 2 1 
1 1 1 2 2 2 2 2 2 
2 2 2 1 1 1 1 1 1 
1 1 1 2 2 2 2 1 1 
1 1 2 2 1 1 1 2 2 
2 2 2 2 2 1 1 1 1 
1 1 2 2 2 2 2 1 1 
1 1 0 0 0 0 0 0 0 
0 0 0 0 0 0 0 0 0 
0 0 0 0 0 0 0 0 0 
2 2 2 1 1 1 1 1 2 
2 2 2 2 1 2 2 2 2 
2 1 1 1 2 1 1 1 1 
1 2 2 1 1 1 1 1 2 
1 1 1 1 2 2 2 2 1 
1 1 1 2 2 1 1 1 1 
2 1 1 1 1 1 1 1 1 
1 1 1 2 2 2 2 2 2 
2 2 2 0 0 0 0 0 0 
0 0 0 0 0 0 0 0 0 
0 0 0 0 0 0 0 0 0 
0 2 2 2 1 2 2 2 2 
2 2 2 2 2 1 2 2 2 
2 2 1 1 1 1 1 1 1 
1 1 1 1 1 1 1 1 1 
2 1 1 1 1 2 2 2 2 
1 1 1 1 1 1 1 1 1 
1 2 1 1 1 1 2 2 2 
1 1 1 1 1 1 1 1 1 
1 1 1 1 0 0 0 0 0 
0 0 0 0 0 0 0 0 0 
0 0 0 0 0 0 0 0 0 
0 0 2 2 2 2 2 2 2 
2 1 1 1 1 1 1 2 2 
2 2 2 2 2 2 2 1 1 
1 1 1 2 2 1 1 1 1 
1 2 1 1 1 1 2 2 2 
2 1 1 1 1 2 2 1 1 
1 1 1 1 1 1 1 2 2 
2 2 1 1 2 2 2 2 1 
1 1 1 1 1 0 0 0 0 
0 0 0 0 0 0 0 0 0 
0 0 0 0 0 0 0 0 0 
0 0 0 2 1 1 1 2 2 
2 2 1 1 1 1 1 1 2 
2 2 2 2 1 2 2 2 2 
2 2 2 1 2 2 2 2 2 
2 2 2 2 2 2 1 2 2 
2 2 2 2 1 2 2 2 2 
2 2 2 1 1 1 1 2 2 
2 2 2 2 2 2 2 2 2 
1 1 1 1 1 1 0 0 0 
0 0 0 0 0 0 0 0 0 
0 0 0 0 0 0 0 0 0 
0 0 0 0 2 1 1 1 2 
2 2 2 1 1 1 1 1 1 
2 2 2 1 1 1 2 2 2 
2 2 1 1 1 1 2 2 2 
2 2 2 2 2 2 2 1 1 
1 1 1 2 2 1 1 1 1 
2 2 2 2 1 1 1 2 2 
2 2 2 2 1 1 2 2 2 
2 2 1 1 1 1 1 0 0 
0 0 0 0 0 0 0 0 0 
0 0 0 0 0 0 0 0 0 
0 0 0 0 0 2 2 1 1 
1 1 1 2 2 2 2 2 2 
2 1 1 1 1 1 1 2 2 
2 2 2 1 1 1 1 1 1 
1 1 1 1 1 1 2 2 1 
1 1 1 1 2 2 1 1 1 
1 2 2 2 2 1 2 2 2 
2 2 2 1 1 1 1 2 2 
2 2 2 2 1 1 1 1 0 
0 0 0 0 0 0 0 0 0 
0 0 0 0 0 0 0 0 0 
0 0 0 0 0 0 2 2 2 
1 1 1 1 2 2 2 2 2 
2 2 1 1 1 1 1 1 2 
2 2 2 2 1 1 1 1 2 
2 1 1 1 1 1 1 1 1 
1 1 1 1 1 2 2 1 1 
1 1 2 2 2 2 1 2 2 
2 2 1 1 1 1 1 1 1 
2 2 2 2 2 2 2 2 2 
0 0 0 0 0 0 0 0 0 
0 0 0 0 0 0 0 0 0 
0 0 0 0 0 0 0 2 2 
2 1 1 1 2 2 2 2 2 
2 2 2 1 1 1 1 1 1 
2 2 2 2 2 1 1 1 1 
2 2 1 1 1 1 1 1 2 
2 1 1 1 1 1 1 1 1 
1 1 1 2 2 2 1 1 1 
1 1 1 1 1 1 1 1 1 
1 1 1 1 1 1 1 1 1 
1 0 0 0 0 0 0 0 0 
0 0 0 0 0 0 0 0 0 
0 0 0 0 0 0 0 0 2 
2 2 1 1 1 2 1 1 1 
1 2 2 2 1 1 1 1 1 
2 1 1 1 1 2 2 2 1 
2 2 2 1 2 2 2 2 2 
2 2 1 1 1 1 1 2 2 
1 1 1 1 2 2 1 1 1 
1 1 2 2 2 1 1 1 1 
2 2 2 2 1 1 1 1 1 
1 1 0 0 0 0 0 0 0 
0 0 0 0 0 0 0 0 0 
0 0 0 0 0 0 0 0 0 
2 2 2 1 1 1 2 1 1 
1 1 1 1 1 2 2 2 2 
2 2 1 1 1 1 1 1 1 
1 2 2 1 1 1 1 1 2 
2 2 2 2 2 2 2 1 2 
2 2 2 2 1 2 2 1 1 
1 1 1 2 2 2 2 2 2 
2 2 2 2 2 2 1 1 1 
1 1 1 0 0 0 0 0 0 
0 0 0 0 0 0 0 0 0 
0 0 0 0 0 0 0 0 0 
0 2 2 2 1 1 2 2 2 
1 1 1 1 1 1 2 2 2 
2 2 2 1 1 1 1 2 1 
1 1 1 2 1 1 1 1 1 
2 2 2 2 2 1 1 1 1 
1 2 2 2 2 1 2 2 1 
1 1 1 2 2 2 2 1 1 
1 1 1 2 2 2 2 1 1 
1 1 1 1 0 0 0 0 0 
0 0 0 0 0 0 0 0 0 
0 0 0 0 0 0 0 0 0 
0 0 2 2 2 1 1 2 2 
2 2 1 1 1 1 1 2 2 
2 2 2 2 1 1 1 1 2 
1 1 1 1 2 1 1 1 1 
1 2 2 2 2 2 1 1 1 
1 1 2 2 2 1 1 1 2 
1 1 1 1 2 2 2 2 1 
1 1 1 1 2 2 2 2 1 
1 1 2 2 2 0 0 0 0 
0 0 0 0 0 0 0 0 0 
0 0 0 0 0 0 0 0 0 
0 0 0 2 2 2 1 1 2 
2 2 2 2 2 2 1 1 2 
2 2 2 2 2 1 1 1 1 
2 1 1 1 1 2 1 1 1 
1 1 2 2 2 2 2 1 1 
1 1 1 2 2 1 1 1 1 
2 1 1 1 1 2 2 2 2 
1 1 1 1 1 1 2 2 2 
2 2 2 2 2 2 0 0 0 
0 0 0 0 0 0 0 0 0 
0 0 0 0 0 0 0 0 0 
0 0 0 0 0 2 2 1 1 
2 2 2 2 2 2 2 2 2 
2 2 2 2 2 2 2 1 2 
2 2 1 1 1 1 2 2 2 
2 2 1 1 1 1 1 2 1 
1 1 1 1 2 2 1 1 1 
1 2 2 2 2 1 2 2 2 
1 1 1 1 1 1 1 2 1 
1 1 1 2 2 2 2 0 0 
0 0 0 0 0 0 0 0 0 
0 0 0 0 0 0 0 0 0 
0 0 0 0 0 0 0 2 2 
2 2 1 1 1 1 1 1 1 
1 2 1 1 1 1 1 1 1 
2 2 2 1 1 1 1 2 2 
2 2 2 1 1 1 1 1 1 
1 1 1 1 1 2 2 1 1 
1 1 2 2 2 2 1 2 2 
2 2 2 2 2 2 2 2 2 
1 1 1 1 2 2 2 2 0 
0 0 0 0 0 0 0 0 0 
0 0 0 0 0 0 0 0 0 
0 0 0 0 0 0 0 0 2 
2 2 2 2 2 2 2 1 1 
1 1 2 1 1 1 1 1 1 
1 2 2 2 2 2 2 1 2 
2 2 2 1 1 1 1 1 1 
2 2 2 2 2 1 2 2 1 
1 1 1 2 2 2 2 1 1 
1 1 1 2 2 2 2 2 2 
2 1 1 1 1 2 2 2 2 
0 0 0 0 0 0 0 0 0 
0 0 0 0 0 0 0 0 0 
0 0 0 0 0 0 0 0 0 
2 2 2 2 2 2 2 2 1 
1 1 1 2 2 1 1 1 1 
1 1 2 2 2 2 2 2 1 
2 2 2 2 1 1 1 1 1 
1 2 2 2 2 2 1 2 2 
1 1 1 1 2 2 2 2 1 
1 1 1 1 1 2 2 2 2 
2 2 1 1 1 1 2 2 2 
2 0 0 0 0 0 0 0 0 
0 0 0 0 0 0 0 0 0 
0 0 0 0 0 0 0 0 0 
0 2 2 2 2 2 2 2 2 
1 1 1 1 2 2 2 1 1 
1 1 1 2 2 2 2 2 1 
1 1 1 1 1 1 1 1 2 
2 2 2 2 2 1 1 1 1 
2 2 1 1 2 2 2 2 2 
1 1 1 1 1 1 1 1 1 
2 1 1 1 1 1 1 2 2 
2 0 0 0 0 0 0 0 0 
0 0 0 0 0 0 0 0 0 
0 0 0 0 0 0 0 0 0 
0 0 0 1 1 1 1 1 1 
2 1 1 1 1 2 2 2 2 
2 2 2 1 2 2 2 2 1 
1 1 1 1 1 1 2 2 1 
2 2 2 2 2 2 1 1 1 
1 2 2 1 2 2 2 2 2 
2 1 1 1 1 1 2 2 2 
2 2 1 1 1 1 1 1 1 
1 0 0 0 0 0 0 0 0 
0 0 0 0 0 0 0 0 0 
0 0 0 0 0 0 0 0 0 
0 0 0 0 1 1 1 1 1 
1 2 1 1 1 1 2 2 2 
2 2 2 2 1 1 1 1 2 
1 1 1 1 1 1 1 2 2 
1 1 1 1 1 2 2 1 1 
1 1 2 2 1 2 2 2 2 
2 2 2 2 2 2 1 2 2 
2 2 2 2 2 2 2 2 2 
2 0 0 0 0 0 0 0 0 
0 0 0 0 0 0 0 0 0 
0 0 0 0 0 0 0 0 0 
0 0 0 0 0 0 1 1 1 
1 1 2 2 2 2 2 2 2 
2 2 2 2 2 1 1 1 1 
2 2 2 2 1 1 1 1 2 
2 1 1 1 1 1 2 2 1 
1 1 1 2 1 1 1 1 2 
1 1 1 2 2 2 2 2 2 
2 2 2 2 1 2 2 2 2 
2 0 0 0 0 0 0 0 0 
0 0 0 0 0 0 0 0 0 
0 0 0 0 0 0 0 0 0 
0 0 0 0 0 0 0 0 1 
1 1 1 2 2 2 2 1 1 
1 2 2 2 1 1 1 1 1 
1 2 2 2 2 2 1 1 1 
2 2 1 1 1 1 1 2 2 
1 1 1 1 1 1 1 1 1 
2 1 1 1 2 2 2 2 2 
1 2 2 2 2 1 2 2 2 
2 0 0 0 0 0 0 0 0 
0 0 0 0 0 0 0 0 0 
0 0 0 0 0 0 0 0 0 
0 0 0 0 0 0 0 0 0 
0 1 1 1 2 2 2 2 1 
1 1 1 1 2 1 1 1 1 
1 1 2 2 2 2 2 2 1 
1 2 2 1 1 1 1 1 2 
2 2 2 1 2 2 1 1 1 
1 2 1 1 1 1 2 2 2 
2 1 1 1 1 1 1 2 2 
2 0 0 0 0 0 0 0 0 
0 0 0 0 0 0 0 0 0 
0 0 0 0 0 0 0 0 0 
0 0 0 0 0 0 0 0 0 
0 0 0 1 1 2 2 2 2 
1 1 1 1 1 2 1 2 2 
2 2 2 2 2 2 2 2 2 
2 1 2 2 2 2 2 2 2 
1 1 1 1 1 2 2 1 1 
1 1 2 1 1 1 1 2 2 
2 2 1 1 1 1 1 1 2 
2 0 0 0 0 0 0 0 0 
0 0 0 0 0 0 0 0 0 
0 0 0 0 0 0 0 0 0 
0 0 0 0 0 0 0 0 0 
0 0 0 0 0 1 2 2 2 
1 1 1 1 1 2 2 1 2 
2 2 2 2 1 1 2 2 2 
2 2 1 2 2 2 1 1 1 
2 1 1 1 1 1 2 2 1 
1 1 1 2 1 1 1 1 1 
1 1 2 1 1 1 1 1 1 
2 0 0 0 0 0 0 0 0 
0 0 0 0 0 0 0 0 0 
0 0 0 0 0 0 0 0 0 
0 0 0 0 0 0 0 0 0 
0 0 0 0 0 0 0 2 2 
2 1 1 1 1 1 2 2 1 
2 2 2 2 2 1 1 1 1 
1 1 1 1 2 2 2 1 1 
1 2 1 1 1 1 1 2 2 
1 1 1 2 2 2 1 1 1 
1 1 1 2 1 1 1 1 1 
1 0 0 0 0 0 0 0 0 
0 0 0 0 0 0 0 0 0 
0 0 0 0 0 0 0 0 0 
0 0 0 0 0 0 0 0 0 
0 0 0 0 0 0 0 0 0 
2 1 1 1 1 2 2 2 2 
1 2 2 2 2 2 1 1 1 
1 1 1 1 1 2 2 2 1 
1 1 2 1 1 1 1 1 2 
2 1 2 2 2 2 2 2 1 
2 2 2 2 2 2 2 2 2 
1 0 0 0 0 0 0 0 0 
0 0 0 0 0 0 0 0 0 
0 0 0 0 0 0 0 0 0 
0 0 0 0 0 0 0 0 0 
0 0 0 0 0 0 0 0 0 
0 0 1 1 1 2 2 2 2 
1 1 2 1 1 1 1 1 1 
1 1 1 1 1 1 2 2 2 
1 1 1 1 1 1 1 1 1 
2 2 1 2 2 2 2 2 2 
1 2 2 2 2 2 2 2 2 
2 0 0 0 0 0 0 0 0 
0 0 0 0 0 0 0 0 0 
0 0 0 0 0 0 0 0 0 
0 0 0 0 0 0 0 0 0 
0 0 0 0 0 0 0 0 0 
0 0 0 0 2 2 2 2 2 
2 1 1 2 2 2 2 2 2 
2 2 2 2 2 2 2 1 1 
1 1 1 2 2 2 2 2 2 
2 2 2 1 1 1 2 2 2 
2 1 1 1 1 1 2 2 2 
2 0 0 0 0 0 0 0 0 
0 0 0 0 0 0 0 0 0 
0 0 0 0 0 0 0 0 0 
0 0 0 0 0 0 0 0 0 
0 0 0 0 0 0 0 0 0 
0 0 0 0 0 0 2 2 2 
2 2 1 2 2 2 2 2 1 
1 1 1 2 2 2 2 2 1 
1 1 1 1 2 2 1 1 1 
1 1 2 2 1 1 1 1 1 
2 2 1 1 1 1 1 1 2 
2 0 0 0 0 0 0 0 0 
0 0 0 0 0 0 0 0 0 
0 0 0 0 0 0 0 0 0 
0 0 0 0 0 0 0 0 0 
0 0 0 0 0 0 0 0 0 
0 0 0 0 0 0 0 0 2 
2 2 2 2 2 2 2 2 1 
1 1 1 1 1 2 2 2 2 
1 1 1 1 1 2 1 1 1 
1 1 1 2 2 1 1 1 1 
1 2 2 1 1 1 1 1 1 
1 0 0 0 0 0 0 0 0 
0 0 0 0 0 0 0 0 0 
0 0 0 0 0 0 0 0 0 
0 0 0 0 0 0 0 0 0 
0 0 0 0 0 0 0 0 0 
0 0 0 0 0 0 0 0 0 
0 0 0 0 2 2 2 2 2 
1 1 1 1 1 1 2 2 2 
2 1 1 1 1 1 2 1 1 
1 1 1 1 2 2 1 1 1 
1 1 2 2 1 1 1 1 1 
1 0 0 0 0 0 0 0 0 
0 0 0 0 0 0 0 0 0 
0 0 0 0 0 0 0 0 0 
0 0 0 0 0 0 0 0 0 
0 0 0 0 0 0 0 0 0 
0 0 0 0 0 0 0 0 0 
0 0 0 0 0 0 2 2 2 
2 1 1 1 1 1 1 2 2 
2 2 1 1 1 1 1 1 1 
1 1 1 1 1 1 1 1 1 
1 1 1 2 2 1 1 1 1 
1 0 0 0 0 0 0 0 0 
0 0 0 0 0 0 0 0 0 
0 0 0 0 0 0 0 0 0 
0 0 0 0 0 0 0 0 0 
0 0 0 0 0 0 0 0 0 
0 0 0 0 0 0 0 0 0 
0 0 0 0 0 0 0 0 0 
0 0 0 0 0 0 0 0 0 
0 0 0 0 0 0 0 0 0 
0 0 0 0 0 0 0 0 0 
0 0 0 0 0 0 0 0 0 
0 0 0 0 0 0 0 0 0 
0 0 0 0 0 0 0 0 0 
0 0 0 0 0 0 0 0 0 
0 0 0 0 0 0 0 0 0 
0 0 0 0 0 0 0 0 0 
0 0 0 0 0 0 0 0 0 
0 0 0 0 0 0 0 0 0 
0 0 0 0 0 0 0 0 0 
0 0 0 0 0 0 0 0 0 
0 0 0 0 0 0 0 0 0 
0 0 0 0 0 0 0 0 0 
0 0 0 0 0 0 0 0 0 
0 0 0 0 0 0 0 0 0 
0 0 0 0 0 0 0 0 0 
0 0 0 0 0 0 0 0 0 
0 0 0 0 0 0 0 0 0 
0 0 0 0 0 0 0 0 0 
0 0 0 0 0 0 0 0 0 
0 0 0 0 0 0 0 0 0 
0 0 0 0 0 0 0 0 0 
0 0 0 0 0 0 0 0 0 
0 0 0 0 0 0 0 0 0 
0 0 0 0 0 0 0 0 0 
0 0 0 0 0 0 0 0 0 
0 0 0 0 0 0 0 0 0 
0 0 0 0 0 0 0 0 0 
0 0 0 0 0 0 0 0 0 
0 0 0 0 0 0 0 0 0 
0 0 0 0 0 0 0 0 0 
0 0 0 0 0 0 0 0 0 
0 0 0 0 0 0 0 0 0 
0 0 0 0 0 0 0 0 0 
0 0 0 0 0 0 0 0 0 
0 0 0 0 0 0 0 0 0 
0 0 0 0 0 0 0 0 0 
0 0 0 0 0 0 0 0 0 
0 0 0 0 0 0 0 0 0 
0 0 0 0 0 0 0 0 0 
0 0 0 0 0 0 0 0 0 
0 0 0 0 0 0 0 0 0 
0 0 0 0 0 0 0 0 0 
0 0 0 0 0 0 0 0 0 
0 0 0 0 0 0 0 0 0 
0 0 0 0 0 0 0 0 0 
0 0 0 0 0 0 0 0 0 
0 0 0 0 0 0 0 0 0 
0 0 0 0 0 0 0 0 0 
0 0 0 0 0 0 0 0 0 
0 0 0 0 0 0 0 0 0 
0 0 0 0 0 0 0 0 0 
0 0 0 0 0 0 0 0 0 
0 0 0 0 0 0 0 0 0 
0 0 0 0 0 0 0 0 0 
0 0 0 0 0 0 0 0 0 
0 0 0 0 0 0 0 0 0 
0 0 0 0 0 0 0 0 0 
0 0 0 0 0 0 0 0 0 
0 0 0 0 0 0 0 0 0 
0 0 0 0 0 0 0 0 0 
0 0 0 0 0 0 0 0 0 
0 0 0 0 0 0 0 0 0 
0 0 0 0 0 0 0 0 0 
0 0 0 0 0 0 0 0 0 
0 0 0 0 0 0 0 0 0 
0 0 0 0 0 0 0 0 0 
0 0 0 0 0 0 0 0 0 
0 0 0 0 0 0 0 0 0 
0 0 0 0 0 0 0 0 0 
0 0 0 0 0 0 0 0 0 
0 0 0 0 0 0 0 0 0 
0 0 0 0 0 0 0 0 0 
0 0 0 0 0 0 0 0 0 
0 0 0 0 0 0 0 0 0 
0 0 0 0 0 0 0 0 0 
0 0 0 0 0 0 0 0 0 
0 0 0 0 0 0 0 0 0 
0 0 0 0 0 0 0 0 0 
0 0 0 0 0 0 0 0 0 
0 0 0 0 0 0 0 0 0 
0 0 0 0 0 0 0 0 0 
0 0 0 0 0 0 0 0 0 
0 0 0 0 0 0 0 0 0 
0 0 0 0 0 0 0 0 0 
0 0 0 0 0 0 0 0 0 
0 0 0 0 0 0 0 0 0 
0 0 0 0 0 0 0 0 0 
0 0 0 0 0 0 0 0 0 
0 0 0 0 0 0 0 0 0 
0 0 0 0 0 0 0 0 0 
0 0 0 0 0 0 0 0 0 
0 0 0 0 0 0 0 0 0 
0 0 0 0 0 0 0 0 0 
0 0 0 0 0 0 0 0 0 
0 0 0 0 0 0 0 0 0 
0 0 0 0 0 0 0 0 0 
0 0 0 0 0 0 0 0 0 
0 0 0 0 0 0 0 0 0 
0 0 0 0 0 0 0 0 0 
0 0 0 0 0 0 0 0 0 
0 0 0 0 0 0 0 0 0 
0 0 0 0 0 0 0 0 0 
0 0 0 0 0 0 0 0 0 
0 0 0 0 0 0 0 0 0 
0 
CellId 1 10000 long
0 0 0 0 0 0 0 0 0 
0 0 0 0 0 0 0 0 0 
0 0 0 0 0 0 0 0 0 
0 0 0 0 0 0 0 0 0 
0 0 0 0 0 0 0 0 0 
0 0 0 0 0 0 0 0 0 
0 0 0 0 0 0 0 0 0 
0 0 0 0 0 0 0 0 0 
0 0 0 0 0 0 0 0 0 
0 0 0 0 0 0 0 0 0 
0 0 0 0 0 0 0 0 0 
0 0 0 0 0 0 0 0 0 
0 0 0 0 0 0 0 0 0 
0 0 0 0 0 0 0 0 0 
0 0 0 0 0 0 0 0 0 
0 0 0 0 0 0 0 0 0 
0 0 0 0 0 0 0 0 0 
0 0 0 0 0 0 0 0 0 
0 0 0 0 0 0 0 0 0 
0 0 0 0 0 0 0 0 0 
0 0 0 0 0 0 0 0 0 
0 0 0 0 0 0 0 0 0 
0 0 0 0 0 0 0 0 0 
0 0 0 0 0 0 0 0 0 
0 0 0 0 0 0 0 0 0 
0 0 0 0 0 0 0 0 0 
0 0 0 0 0 0 0 0 0 
0 0 0 0 0 0 0 0 0 
0 0 0 0 0 0 0 0 0 
0 0 0 0 0 0 0 0 0 
0 0 0 0 0 0 0 0 0 
0 0 0 0 0 0 0 0 0 
0 0 0 0 0 0 0 0 0 
0 0 0 0 0 0 0 0 0 
0 0 0 0 0 0 0 0 0 
0 0 0 0 0 0 0 0 0 
0 0 0 0 0 0 0 0 0 
0 0 0 0 0 0 0 0 0 
0 0 0 0 0 0 0 0 0 
0 0 0 0 0 0 0 0 0 
0 0 0 0 0 0 0 0 0 
0 0 0 0 0 0 0 0 0 
0 0 0 0 0 0 0 0 0 
0 0 0 0 0 0 0 0 0 
0 0 0 0 0 0 0 0 0 
0 0 0 0 0 0 0 0 0 
0 0 0 0 0 0 0 0 0 
0 0 0 0 0 0 0 0 0 
0 0 0 0 0 0 0 0 0 
0 0 0 0 0 0 0 0 0 
0 0 0 0 0 0 0 0 0 
0 0 0 0 0 0 0 0 0 
0 0 0 0 0 0 0 0 0 
0 0 0 0 0 0 0 0 0 
0 0 0 0 0 0 0 0 0 
0 0 0 0 0 0 0 0 0 
0 0 0 0 0 0 0 0 0 
0 0 0 0 0 0 0 0 0 
0 0 0 0 0 0 0 0 0 
0 0 0 0 0 0 0 0 0 
0 0 0 0 0 0 0 0 0 
0 0 0 0 0 0 0 0 0 
0 0 0 0 0 0 0 0 0 
0 0 0 0 0 0 0 0 0 
0 0 0 0 0 0 0 0 0 
0 0 0 0 0 0 0 0 0 
0 0 0 0 0 0 0 0 0 
0 0 0 0 0 0 0 0 0 
0 0 0 0 0 0 0 0 0 
0 0 0 0 0 0 0 0 0 
0 0 0 0 0 0 0 0 0 
0 0 0 0 0 0 0 0 0 
0 0 0 0 0 0 0 0 0 
0 0 0 0 0 0 0 0 0 
0 0 0 0 0 0 0 0 0 
0 0 0 0 0 0 0 0 0 
0 0 0 0 0 0 0 0 0 
0 0 0 0 0 0 0 0 0 
0 0 0 0 0 0 0 0 0 
0 0 0 0 0 0 0 0 0 
0 0 0 0 0 0 0 0 0 
0 0 0 0 0 0 0 0 0 
0 0 0 0 0 0 0 0 0 
0 0 0 0 0 0 0 0 0 
0 0 0 0 0 0 0 0 0 
0 0 0 0 0 0 0 0 0 
0 0 0 0 0 0 0 0 0 
0 0 0 0 0 0 0 0 0 
0 0 0 0 0 0 0 0 0 
0 0 0 0 0 0 0 0 0 
0 0 0 0 0 0 0 0 0 
0 0 0 0 0 0 0 0 0 
0 0 0 0 0 0 0 0 0 
0 0 0 0 0 0 0 0 0 
0 0 0 0 0 0 0 0 0 
0 0 0 0 0 0 0 0 0 
0 0 0 0 0 0 0 0 0 
0 0 0 0 0 0 0 0 0 
0 0 0 0 0 0 0 0 0 
0 0 0 0 0 0 0 0 0 
0 0 0 0 0 0 0 0 0 
0 0 0 0 0 0 0 0 0 
0 0 0 0 0 0 0 0 0 
0 0 0 0 0 0 0 0 0 
0 0 0 0 0 0 0 0 0 
0 0 0 0 0 0 0 0 0 
0 0 0 0 0 0 0 0 0 
0 0 0 0 0 0 0 0 0 
0 0 0 0 0 0 0 0 0 
0 0 0 0 0 0 0 0 0 
0 0 0 0 0 0 0 0 0 
0 0 0 0 0 0 0 0 0 
0 0 0 0 0 0 0 0 0 
0 0 0 0 0 0 0 0 0 
0 0 0 0 0 0 0 0 0 
0 0 0 0 0 0 0 0 0 
0 0 0 0 0 0 0 0 0 
0 0 0 0 0 0 0 0 0 
0 0 0 0 0 0 0 0 0 
0 0 0 0 0 0 0 0 0 
0 0 0 0 0 0 0 0 0 
0 0 0 0 0 0 0 0 0 
0 0 0 0 0 0 0 0 0 
0 0 0 0 0 0 0 0 0 
0 0 0 0 0 0 0 0 0 
0 0 0 0 0 0 0 0 0 
0 0 0 0 0 0 0 0 0 
0 0 0 0 0 0 0 0 0 
0 0 0 0 0 0 0 0 0 
0 0 0 0 0 0 0 0 0 
0 0 0 0 0 0 0 0 0 
0 0 0 0 0 0 0 0 0 
0 0 0 0 0 0 0 0 0 
0 0 0 0 0 0 0 0 0 
0 0 0 0 0 0 0 0 0 
0 0 0 0 0 0 0 0 0 
0 0 0 0 0 0 0 0 0 
0 0 0 0 0 0 0 0 0 
0 0 0 0 0 0 0 0 0 
0 0 0 0 0 0 0 0 0 
0 0 0 0 0 0 0 0 0 
0 0 0 0 0 0 0 0 0 
0 0 0 0 0 0 0 0 0 
0 0 0 0 0 0 0 0 0 
0 0 0 0 0 0 0 0 0 
0 0 0 0 0 0 0 0 0 
0 0 0 0 0 0 0 0 0 
0 0 0 0 0 0 0 0 0 
0 0 0 0 0 0 0 0 0 
0 0 0 0 0 0 0 0 0 
0 0 0 0 0 0 0 0 0 
0 0 0 0 0 0 0 0 0 
0 0 0 0 0 0 0 0 0 
0 0 0 0 0 0 0 0 0 
0 0 0 0 0 0 0 0 0 
0 0 0 0 0 0 0 0 0 
0 0 0 0 0 0 0 0 0 
0 0 0 0 0 0 0 0 0 
0 0 0 0 0 0 0 0 0 
0 0 0 0 0 0 0 0 0 
0 0 0 0 0 0 0 0 0 
0 0 0 0 0 0 0 0 0 
0 0 0 0 0 0 0 0 0 
0 0 0 0 0 0 0 0 0 
0 0 0 0 0 0 0 0 0 
0 0 0 0 0 0 0 0 0 
0 0 0 0 0 0 0 0 0 
0 0 0 0 0 0 0 0 0 
0 0 0 0 0 0 0 0 0 
0 0 0 0 0 0 0 0 0 
0 9 9 9 9 1 1 1 1 
1 3 2 2 2 2 2 2 12 
12 12 12 4 4 4 4 5 6 
6 6 6 6 6 6 6 5 7 
7 7 7 7 7 7 7 0 0 
0 0 0 0 0 0 0 0 0 
0 0 0 0 0 0 0 0 0 
0 0 0 0 0 0 0 0 0 
0 0 0 0 0 0 0 0 0 
0 0 0 0 0 0 0 0 0 
0 0 0 0 0 0 0 0 0 
0 9 9 9 9 9 1 1 1 
1 1 3 2 2 2 2 2 3 
12 12 12 12 4 4 4 4 5 
6 6 6 6 6 6 6 6 5 
7 7 7 7 7 7 7 7 18 
18 0 0 0 0 0 0 0 0 
0 0 0 0 0 0 0 0 0 
0 0 0 0 0 0 0 0 0 
0 0 0 0 0 0 0 0 0 
0 0 0 0 0 0 0 0 0 
0 0 0 0 0 0 0 0 0 
0 9 9 9 9 9 9 1 1 
1 1 1 3 2 2 2 2 2 
3 12 12 12 12 4 4 4 4 
5 6 6 6 6 6 6 6 6 
5 7 7 7 7 7 7 7 7 
18 18 18 0 0 0 0 0 0 
0 0 0 0 0 0 0 0 0 
0 0 0 0 0 0 0 0 0 
0 0 0 0 0 0 0 0 0 
0 0 0 0 0 0 0 0 0 
0 0 0 0 0 0 0 0 0 
0 20 20 9 9 9 9 9 9 
1 1 1 1 3 2 2 2 2 
2 3 12 12 12 12 4 4 4 
4 5 5 5 5 5 5 5 5 
5 5 7 7 7 7 7 7 7 
7 18 18 18 18 0 0 0 0 
0 0 0 0 0 0 0 0 0 
0 0 0 0 0 0 0 0 0 
0 0 0 0 0 0 0 0 0 
0 0 0 0 0 0 0 0 0 
0 0 0 0 0 0 0 0 0 
0 8 20 20 9 9 9 9 9 
9 9 1 1 1 3 3 3 3 
3 3 3 12 12 12 12 4 4 
4 4 5 5 5 5 5 5 5 
5 5 5 17 17 17 17 17 17 
17 7 18 18 18 18 18 0 0 
0 0 0 0 0 0 0 0 0 
0 0 0 0 0 0 0 0 0 
0 0 0 0 0 0 0 0 0 
0 0 0 0 0 0 0 0 0 
0 0 0 0 0 0 0 0 0 
0 8 8 20 20 20 9 9 10 
10 10 10 1 1 1 3 3 3 
3 3 3 3 12 12 12 12 4 
4 4 4 5 14 14 14 14 14 
14 14 14 14 17 17 17 17 17 
17 17 7 18 18 18 18 18 18 
0 0 0 0 0 0 0 0 0 
0 0 0 0 0 0 0 0 0 
0 0 0 0 0 0 0 0 0 
0 0 0 0 0 0 0 0 0 
0 0 0 0 0 0 0 0 0 
0 8 8 8 20 20 20 20 10 
10 10 10 10 22 22 1 3 3 
3 3 3 3 3 12 12 12 12 
4 4 4 4 13 14 14 14 14 
14 14 14 14 14 17 17 17 17 
17 17 17 17 18 18 18 18 18 
18 18 0 0 0 0 0 0 0 
0 0 0 0 0 0 0 0 0 
0 0 0 0 0 0 0 0 0 
0 0 0 0 0 0 0 0 0 
0 0 0 0 0 0 0 0 0 
0 8 8 8 8 20 20 20 21 
21 10 10 10 10 22 22 22 11 
11 11 11 11 11 12 12 12 12 
4 4 4 4 13 13 13 14 14 
14 14 14 14 14 14 17 15 15 
15 15 15 15 16 16 16 16 16 
16 16 16 16 0 0 0 0 0 
0 0 0 0 0 0 0 0 0 
0 0 0 0 0 0 0 0 0 
0 0 0 0 0 0 0 0 0 
0 0 0 0 0 0 0 0 0 
0 8 8 8 8 8 20 20 20 
21 21 10 10 10 10 22 22 22 
11 11 11 11 11 23 23 23 23 
24 24 24 4 13 13 13 13 13 
13 13 13 28 28 28 28 28 15 
15 15 15 15 29 29 16 16 16 
16 16 16 16 16 31 0 0 0 
0 0 0 0 0 0 0 0 0 
0 0 0 0 0 0 0 0 0 
0 0 0 0 0 0 0 0 0 
0 0 0 0 0 0 0 0 0 
0 8 8 8 8 8 8 20 20 
20 21 21 21 10 10 10 22 22 
22 11 11 11 11 23 23 23 23 
24 24 24 24 25 13 13 13 13 
13 13 27 27 27 28 28 28 28 
15 15 15 15 29 29 29 16 16 
16 16 16 16 16 16 31 31 0 
0 0 0 0 0 0 0 0 0 
0 0 0 0 0 0 0 0 0 
0 0 0 0 0 0 0 0 0 
0 0 0 0 0 0 0 0 0 
0 19 19 8 8 8 8 8 20 
20 20 21 21 21 21 10 10 22 
22 22 11 11 11 11 23 23 23 
24 24 24 24 24 25 13 13 13 
13 13 13 27 27 27 28 28 28 
28 15 15 15 29 29 29 29 16 
16 30 30 30 30 16 16 31 31 
31 0 0 0 0 0 0 0 0 
0 0 0 0 0 0 0 0 0 
0 0 0 0 0 0 0 0 0 
0 0 0 0 0 0 0 0 0 
0 45 19 19 19 19 19 19 20 
20 20 20 21 21 21 21 10 10 
22 22 22 11 11 11 23 23 23 
24 24 24 24 24 25 25 13 13 
13 13 13 13 27 27 27 27 28 
28 28 15 15 15 29 29 29 29 
29 30 30 30 30 30 30 16 31 
31 31 31 0 0 0 0 0 0 
0 0 0 0 0 0 0 0 0 
0 0 0 0 0 0 0 0 0 
0 0 0 0 0 0 0 0 0 
0 45 45 19 19 19 19 19 34 
34 34 34 20 21 21 21 21 21 
10 22 22 22 11 11 11 23 23 
23 24 24 24 24 25 25 25 13 
26 26 26 26 27 27 27 27 27 
28 28 28 15 15 15 29 29 29 
29 41 41 30 30 30 30 30 16 
31 31 31 31 31 0 0 0 0 
0 0 0 0 0 0 0 0 0 
0 0 0 0 0 0 0 0 0 
0 0 0 0 0 0 0 0 0 
0 45 45 45 19 19 19 19 34 
34 34 34 34 35 21 21 21 21 
21 35 22 22 22 22 11 23 23 
23 23 24 24 24 25 25 25 25 
38 26 26 26 26 39 27 27 27 
27 28 28 28 28 28 29 29 29 
29 41 41 41 41 30 30 30 30 
30 31 31 31 31 31 31 0 0 
0 0 0 0 0 0 0 0 0 
0 0 0 0 0 0 0 0 0 
0 0 0 0 0 0 0 0 0 
0 45 45 45 45 19 19 19 19 
34 34 34 34 34 35 35 35 35 
35 35 35 35 22 22 22 37 23 
23 23 23 24 25 25 25 25 25 
38 38 26 26 26 26 39 27 27 
27 27 28 28 28 28 41 41 41 
41 41 41 42 42 42 42 44 44 
44 44 44 31 31 31 31 31 31 
0 0 0 0 0 0 0 0 0 
0 0 0 0 0 0 0 0 0 
0 0 0 0 0 0 0 0 0 
0 45 45 45 45 45 19 19 19 
19 34 34 34 34 34 35 35 35 
35 35 35 35 35 22 22 37 37 
37 37 37 37 37 25 25 25 25 
38 38 38 26 26 26 26 39 39 
39 39 40 40 40 40 28 41 41 
41 41 41 42 42 42 42 42 44 
44 44 44 44 44 44 44 44 44 
44 44 0 0 0 0 0 0 0 
0 0 0 0 0 0 0 0 0 
0 0 0 0 0 0 0 0 0 
0 45 45 45 45 45 45 19 19 
19 19 34 34 34 34 34 35 35 
35 35 35 35 35 35 35 37 37 
37 37 37 37 37 37 25 25 25 
38 38 38 38 38 26 26 26 39 
39 39 39 40 40 40 40 55 41 
41 41 41 41 42 42 42 42 42 
43 43 43 43 43 44 44 44 44 
44 44 44 0 0 0 0 0 0 
0 0 0 0 0 0 0 0 0 
0 0 0 0 0 0 0 0 0 
0 0 45 45 45 32 32 32 46 
46 46 46 33 33 33 33 33 48 
48 48 48 48 35 35 35 36 36 
36 36 37 37 37 37 37 25 25 
38 38 38 38 38 38 26 26 26 
39 39 39 39 40 40 40 40 55 
55 41 41 41 41 42 42 42 42 
57 43 43 43 43 43 44 44 44 
44 58 58 58 58 0 0 0 0 
0 0 0 0 0 0 0 0 0 
0 0 0 0 0 0 0 0 0 
0 0 0 32 32 32 32 32 32 
46 46 46 46 33 33 33 33 33 
48 48 48 48 48 48 48 36 36 
36 36 36 36 36 37 37 37 37 
38 38 38 38 38 38 38 26 26 
26 39 39 39 39 40 40 40 55 
55 55 41 41 41 41 41 42 42 
42 57 43 43 43 43 43 44 44 
58 58 58 58 58 58 0 0 0 
0 0 0 0 0 0 0 0 0 
0 0 0 0 0 0 0 0 0 
0 0 0 0 32 32 32 32 32 
32 46 46 46 46 33 33 33 33 
33 48 48 48 48 48 48 50 50 
36 36 36 36 36 36 36 37 37 
52 52 52 52 52 52 52 52 39 
39 39 39 39 39 39 40 40 40 
55 55 55 55 56 56 56 56 56 
57 57 57 43 43 43 43 43 44 
58 58 58 58 58 58 58 0 0 
0 0 0 0 0 0 0 0 0 
0 0 0 0 0 0 0 0 0 
0 0 0 0 0 60 32 32 32 
32 32 46 46 46 33 33 33 33 
33 33 48 48 48 48 48 48 50 
50 50 36 36 36 36 36 36 36 
52 52 52 52 52 52 52 52 52 
39 53 53 53 53 53 40 40 40 
40 55 55 55 71 71 56 56 56 
56 56 57 57 57 43 43 43 43 
58 58 58 58 58 58 58 58 0 
0 0 0 0 0 0 0 0 0 
0 0 0 0 0 0 0 0 0 
0 0 0 0 0 0 60 60 60 