# vtk DataFile Version 5.1
vtk output
ASCII
DATASET STRUCTURED_POINTS
DIMENSIONS 100 100 1
SPACING 1 1 1
ORIGIN 0 0 0
POINT_DATA 10000
FIELD FieldData 3
CellType 1 10000 char
0 0 0 0 0 0 0 0 0 
0 0 0 0 0 0 0 0 0 
0 0 0 0 0 0 0 0 0 
0 0 0 0 0 0 0 0 0 
0 0 0 0 0 0 0 0 0 
0 0 0 0 0 0 0 0 0 
0 0 0 0 0 0 0 0 0 
0 0 0 0 0 0 0 0 0 
0 0 0 0 0 0 0 0 0 
0 0 0 0 0 0 0 0 0 
0 0 0 0 0 0 0 0 0 
0 0 0 0 0 0 0 0 0 
0 0 0 0 0 0 0 0 0 
0 0 0 0 0 0 0 0 0 
0 0 0 0 0 0 0 0 0 
0 0 0 0 0 0 0 0 0 
0 0 0 0 0 0 0 0 0 
0 0 0 0 0 0 0 0 0 
0 0 0 0 0 0 0 0 0 
0 0 0 0 0 0 0 0 0 
0 0 0 0 0 0 0 0 0 
0 0 0 0 0 0 0 0 0 
0 0 0 0 0 0 0 0 0 
0 0 0 0 0 0 0 0 0 
0 0 0 0 0 0 0 0 0 
0 0 0 0 0 0 0 0 0 
0 0 0 0 0 0 0 0 0 
0 0 0 0 0 0 0 0 0 
0 0 0 0 0 0 0 0 0 
0 0 0 0 0 0 0 0 0 
0 0 0 0 0 0 0 0 0 
0 0 0 0 0 0 0 0 0 
0 0 0 0 0 0 0 0 0 
0 0 0 0 0 0 0 0 0 
0 0 0 0 0 0 0 0 0 
0 0 0 0 0 0 0 0 0 
0 0 0 0 0 0 0 0 0 
0 0 0 0 0 0 0 0 0 
0 0 0 0 0 0 0 0 0 
0 0 0 0 0 0 0 0 0 
0 0 0 0 0 0 0 0 0 
0 0 0 0 0 0 0 0 0 
0 0 0 0 0 0 0 0 0 
0 0 0 0 0 0 0 0 0 
0 0 0 0 0 0 0 0 0 
0 0 0 0 0 0 0 0 0 
0 0 0 0 0 0 0 0 0 
0 0 0 0 0 0 0 0 0 
0 0 0 0 0 0 0 0 0 
0 0 0 0 0 0 0 0 0 
0 0 0 0 0 0 0 0 0 
0 0 0 0 0 0 0 0 0 
0 0 0 0 0 0 0 0 0 
0 0 0 0 0 0 0 0 0 
0 0 0 0 0 0 0 0 0 
0 0 0 0 0 0 0 0 0 
0 0 0 0 0 0 0 0 0 
0 0 0 0 0 0 0 0 0 
0 0 0 0 0 0 0 0 0 
0 0 0 0 0 0 0 0 0 
0 0 0 0 0 0 0 0 0 
0 0 0 0 0 0 0 0 0 
0 0 0 0 0 0 0 0 0 
0 0 0 0 0 0 0 0 0 
0 0 0 0 0 0 0 0 0 
0 0 0 0 0 0 0 0 0 
0 0 0 0 0 0 0 0 0 
0 0 0 0 0 0 0 0 0 
0 0 0 0 0 0 0 0 0 
0 0 0 0 0 0 0 0 0 
0 0 0 0 0 0 0 0 0 
0 0 0 0 0 0 0 0 0 
0 0 0 0 0 0 0 0 0 
0 0 0 0 0 0 0 0 0 
0 0 0 0 0 0 0 0 0 
0 0 0 0 0 0 0 0 0 
0 0 0 0 0 0 0 0 0 
0 0 0 0 0 0 0 0 0 
0 0 0 0 0 0 0 0 0 
0 0 0 0 0 0 0 0 0 
0 0 0 0 0 0 0 0 0 
0 0 0 0 0 0 0 0 0 
0 0 0 0 0 0 0 0 0 
0 0 0 0 0 0 0 0 0 
0 0 0 0 0 0 0 0 0 
0 0 0 0 0 0 0 0 0 
0 0 0 0 0 0 0 0 0 
0 0 0 0 0 0 0 0 0 
0 0 0 0 0 0 0 0 0 
0 0 0 0 0 0 0 0 0 
0 0 0 0 0 0 0 0 0 
0 0 0 0 0 0 0 0 0 
0 0 0 0 0 0 0 0 0 
0 0 0 0 0 0 0 0 0 
0 0 0 0 0 0 0 0 0 
0 0 0 0 0 0 0 0 0 
0 0 0 0 0 0 0 0 0 
0 0 0 0 0 0 0 0 0 
0 0 0 0 0 0 0 0 0 
0 0 0 0 0 0 0 0 0 
0 0 0 0 0 0 0 0 0 
0 0 0 0 0 0 0 0 0 
0 0 0 0 0 0 0 0 0 
0 0 0 0 0 0 0 0 0 
0 0 0 0 0 0 0 0 0 
0 0 0 0 0 0 0 0 0 
0 0 0 0 0 0 0 0 0 
0 0 0 0 0 0 0 0 0 
0 0 0 0 0 0 0 0 0 
0 0 0 0 0 0 0 0 0 
0 0 0 0 0 0 0 0 0 
0 0 0 0 0 0 0 0 0 
0 0 0 0 0 0 0 0 0 
0 0 0 0 0 0 0 0 0 
0 0 0 0 0 0 0 0 0 
0 0 0 0 0 0 0 0 0 
0 0 0 0 0 0 0 0 0 
0 0 0 0 0 0 0 0 0 
0 0 0 0 0 0 0 0 0 
0 0 0 0 0 0 0 0 0 
0 0 0 0 0 0 0 0 0 
0 0 0 0 0 0 0 0 0 
0 0 0 0 0 0 0 0 0 
0 0 0 0 0 0 0 0 0 
0 0 0 0 0 0 0 0 0 
0 0 0 0 0 0 0 0 0 
0 0 0 0 0 0 0 0 0 
0 0 0 0 0 0 0 0 0 
0 0 0 0 0 0 0 0 0 
0 0 0 0 0 0 0 0 0 
0 0 0 0 0 0 0 0 0 
0 0 0 0 0 0 0 0 0 
0 0 0 0 0 0 0 0 0 
0 0 0 0 0 0 0 0 0 
0 0 0 0 0 0 0 0 0 
0 0 0 0 0 0 0 0 0 
0 0 0 0 0 0 0 0 0 
0 0 0 0 0 0 0 0 0 
0 0 0 0 0 0 0 0 0 
0 0 0 0 0 0 0 0 0 
0 0 0 0 0 0 0 0 0 
0 0 0 0 0 0 0 0 0 
0 0 0 0 0 0 0 0 0 
0 0 0 0 0 0 0 0 0 
0 0 0 0 0 0 0 0 0 
0 0 0 0 0 0 0 0 0 
0 0 0 0 0 0 0 0 0 
0 0 0 0 0 0 0 0 0 
0 0 0 0 0 0 0 0 0 
0 0 0 0 0 0 0 0 0 
0 0 0 0 0 0 0 0 0 
0 0 0 0 0 0 0 0 0 
0 0 0 0 0 0 0 0 0 
0 0 0 0 0 0 0 0 0 
0 0 0 0 0 0 0 0 0 
0 0 0 0 0 0 0 0 0 
0 0 0 0 0 0 0 0 0 
0 0 0 0 0 0 0 0 0 
0 0 0 0 0 0 0 0 0 
0 0 0 0 0 0 0 0 0 
0 0 0 0 0 0 0 0 0 
0 0 0 0 0 0 0 0 0 
0 0 0 0 0 0 0 0 0 
0 0 0 0 0 0 0 0 0 
0 0 0 0 0 0 0 0 0 
0 0 0 0 0 0 0 0 0 
0 0 0 0 0 0 0 0 0 
0 0 0 0 0 0 0 0 0 
0 0 0 0 0 0 0 0 0 
0 0 0 0 0 0 0 0 0 
0 1 1 1 1 1 1 2 2 
2 2 2 2 1 1 2 2 2 
2 2 2 1 1 1 1 1 2 
2 2 2 1 1 1 1 2 2 
2 2 2 1 1 1 1 1 0 
0 0 0 0 0 0 0 0 0 
0 0 0 0 0 0 0 0 0 
0 0 0 0 0 0 0 0 0 
0 0 0 0 0 0 0 0 0 
0 0 0 0 0 0 0 0 0 
0 0 0 0 0 0 0 0 0 
0 1 1 1 1 1 1 1 2 
2 2 2 2 2 1 1 1 2 
2 2 2 2 1 1 1 1 1 
2 2 2 2 1 1 1 1 2 
2 2 2 2 1 1 1 1 1 
1 0 0 0 0 0 0 0 0 
0 0 0 0 0 0 0 0 0 
0 0 0 0 0 0 0 0 0 
0 0 0 0 0 0 0 0 0 
0 0 0 0 0 0 0 0 0 
0 0 0 0 0 0 0 0 0 
0 1 1 1 1 1 1 1 1 
2 2 2 2 2 2 1 1 1 
2 2 2 2 2 1 1 1 1 
1 2 2 2 2 1 1 1 1 
2 2 2 2 2 1 1 1 1 
1 1 1 0 0 0 0 0 0 
0 0 0 0 0 0 0 0 0 
0 0 0 0 0 0 0 0 0 
0 0 0 0 0 0 0 0 0 
0 0 0 0 0 0 0 0 0 
0 0 0 0 0 0 0 0 0 
0 1 1 1 1 1 1 1 1 
1 2 2 2 2 2 2 1 1 
1 1 2 2 2 2 1 1 1 
1 2 2 2 2 2 1 1 1 
1 2 2 2 2 2 1 1 1 
1 1 1 2 2 0 0 0 0 
0 0 0 0 0 0 0 0 0 
0 0 0 0 0 0 0 0 0 
0 0 0 0 0 0 0 0 0 
0 0 0 0 0 0 0 0 0 
0 0 0 0 0 0 0 0 0 
0 1 1 1 1 2 2 2 2 
2 1 1 1 1 1 2 2 1 
1 1 1 2 2 2 2 1 1 
1 2 2 2 2 2 1 1 1 
1 1 2 2 2 2 2 1 1 
1 1 2 2 2 2 2 0 0 
0 0 0 0 0 0 0 0 0 
0 0 0 0 0 0 0 0 0 
0 0 0 0 0 0 0 0 0 
0 0 0 0 0 0 0 0 0 
0 0 0 0 0 0 0 0 0 
0 1 1 1 1 1 2 2 2 
2 2 1 1 1 1 1 1 1 
1 1 1 1 1 2 2 1 1 
1 1 2 2 2 2 2 1 1 
1 1 1 1 1 1 1 1 1 
1 2 2 2 2 2 2 1 1 
0 0 0 0 0 0 0 0 0 
0 0 0 0 0 0 0 0 0 
0 0 0 0 0 0 0 0 0 
0 0 0 0 0 0 0 0 0 
0 0 0 0 0 0 0 0 0 
0 1 1 1 1 1 1 1 2 
2 2 2 1 1 1 1 1 2 
2 1 1 1 1 1 1 1 1 
1 1 1 1 1 1 1 1 1 
2 2 2 2 2 1 1 1 1 
1 1 2 2 2 2 2 1 1 
1 2 0 0 0 0 0 0 0 
0 0 0 0 0 0 0 0 0 
0 0 0 0 0 0 0 0 0 
0 0 0 0 0 0 0 0 0 
0 0 0 0 0 0 0 0 0 
0 1 1 1 1 1 1 1 1 
2 2 2 2 1 1 1 1 2 
2 2 2 1 1 2 2 2 1 
1 1 1 1 1 1 1 1 1 
1 2 2 2 2 2 1 1 1 
1 1 1 2 2 2 2 1 1 
1 2 2 2 0 0 0 0 0 
0 0 0 0 0 0 0 0 0 
0 0 0 0 0 0 0 0 0 
0 0 0 0 0 0 0 0 0 
0 0 0 0 0 0 0 0 0 
0 1 1 1 1 1 1 1 1 
1 2 2 2 2 1 1 1 2 
2 2 2 2 1 2 2 2 2 
2 1 1 1 1 1 1 1 1 
1 1 2 2 2 2 2 2 1 
1 1 1 1 2 2 2 1 1 
1 1 2 2 2 2 0 0 0 
0 0 0 0 0 0 0 0 0 
0 0 0 0 0 0 0 0 0 
0 0 0 0 0 0 0 0 0 
0 0 0 0 0 0 0 0 0 
0 1 1 1 1 1 2 2 2 
2 2 2 2 2 2 1 1 2 
2 2 2 2 2 1 2 2 2 
2 2 2 1 1 1 1 1 1 
1 1 1 2 2 2 2 2 2 
1 1 1 1 1 1 1 1 1 
1 1 1 2 2 2 2 2 0 
0 0 0 0 0 0 0 0 0 
0 0 0 0 0 0 0 0 0 
0 0 0 0 0 0 0 0 0 
0 0 0 0 0 0 0 0 0 
0 1 1 1 1 1 1 2 2 
2 2 2 1 1 1 1 1 1 
2 2 2 2 2 1 1 1 2 
2 2 2 2 1 1 1 1 1 
1 1 1 1 2 2 2 2 2 
2 1 1 1 1 1 1 2 2 
1 1 1 1 2 2 2 2 2 
2 0 0 0 0 0 0 0 0 
0 0 0 0 0 0 0 0 0 
0 0 0 0 0 0 0 0 0 
0 0 0 0 0 0 0 0 0 
0 2 2 1 1 1 1 1 2 
2 2 2 2 1 1 1 1 1 
1 1 2 2 2 1 1 1 1 
1 2 2 2 2 1 1 1 1 
1 1 1 1 1 1 1 1 1 
1 1 1 1 1 1 1 2 2 
2 2 1 1 1 2 2 2 2 
2 1 1 0 0 0 0 0 0 
0 0 0 0 0 0 0 0 0 
0 0 0 0 0 0 0 0 0 
0 0 0 0 0 0 0 0 0 
0 2 2 2 2 1 1 1 2 
2 2 2 2 2 1 1 1 1 
1 1 1 1 1 1 1 1 1 
1 1 1 2 1 1 1 1 1 
1 2 2 2 2 2 1 1 1 
1 1 1 1 1 1 1 2 2 
2 2 2 2 1 1 1 1 1 
1 1 1 1 1 0 0 0 0 
0 0 0 0 0 0 0 0 0 
0 0 0 0 0 0 0 0 0 
0 0 0 0 0 0 0 0 0 
0 1 2 2 2 2 2 1 1 
2 2 2 2 2 2 1 1 1 
1 1 1 1 1 2 2 1 1 
1 1 1 1 2 1 1 1 1 
1 1 2 2 2 2 2 1 1 
1 1 1 1 1 1 1 1 2 
2 2 2 2 2 2 2 2 2 
1 1 1 1 1 1 1 0 0 
0 0 0 0 0 0 0 0 0 
0 0 0 0 0 0 0 0 0 
0 0 0 0 0 0 0 0 0 
0 1 1 2 2 2 2 2 2 
1 1 1 1 1 1 1 2 2 
2 2 2 1 1 2 2 2 2 
1 1 1 1 2 2 2 1 1 
1 1 1 2 2 2 2 2 1 
1 1 1 1 2 2 2 2 1 
2 2 2 2 2 1 2 2 2 
2 2 1 1 1 1 1 2 2 
0 0 0 0 0 0 0 0 0 
0 0 0 0 0 0 0 0 0 
0 0 0 0 0 0 0 0 0 
0 1 1 1 1 2 2 2 2 
2 1 1 1 1 1 1 1 2 
2 2 2 2 2 2 2 2 2 
2 2 1 1 2 2 2 2 2 
1 1 1 1 2 2 2 2 2 
1 1 1 1 1 2 2 2 2 
2 1 1 1 1 1 1 2 2 
2 2 2 1 1 1 1 2 2 
2 2 0 0 0 0 0 0 0 
0 0 0 0 0 0 0 0 0 
0 0 0 0 0 0 0 0 0 
0 1 1 1 1 1 2 2 2 
2 2 1 1 1 1 1 1 1 
2 2 2 2 2 1 1 2 2 
2 2 2 2 1 2 2 2 2 
2 1 1 1 1 2 2 2 2 
2 1 1 1 1 1 2 2 2 
2 2 1 1 1 1 1 1 2 
2 2 2 2 1 1 1 2 2 
2 2 2 2 0 0 0 0 0 
0 0 0 0 0 0 0 0 0 
0 0 0 0 0 0 0 0 0 
0 0 1 1 1 1 1 1 2 
1 1 1 2 2 2 1 1 1 
1 2 2 2 2 1 1 1 1 
2 2 2 2 2 1 2 2 2 
2 2 1 1 1 1 2 2 2 
2 1 1 1 1 1 1 2 2 
2 2 2 1 1 1 1 1 1 
2 2 2 2 1 1 1 2 2 
2 2 2 2 2 0 0 0 0 
0 0 0 0 0 0 0 0 0 
0 0 0 0 0 0 0 0 0 
0 0 0 1 1 1 1 1 1 
1 1 1 1 2 2 2 2 1 
1 1 2 2 2 1 1 1 1 
1 1 2 2 2 1 1 1 2 
2 2 2 2 2 2 2 1 1 
1 1 1 1 1 1 1 1 2 
2 2 2 2 1 1 1 1 1 
1 2 2 2 1 1 1 1 2 
2 2 2 2 2 2 0 0 0 
0 0 0 0 0 0 0 0 0 
0 0 0 0 0 0 0 0 0 
0 0 0 0 2 2 2 2 2 
2 1 1 1 1 2 2 2 2 
2 1 1 2 2 2 1 1 1 
1 1 1 1 1 1 1 1 1 
1 1 1 1 2 2 2 2 1 
1 1 1 1 1 1 1 1 1 
2 2 2 2 2 1 1 1 1 
1 1 1 1 1 1 1 1 1 
1 1 1 1 1 1 1 0 0 
0 0 0 0 0 0 0 0 0 
0 0 0 0 0 0 0 0 0 
0 0 0 0 0 2 2 2 2 
2 2 1 1 1 1 2 2 2 
2 2 1 2 2 2 2 2 1 
1 1 1 1 2 2 2 1 1 
1 1 1 1 1 2 2 2 2 
1 1 1 1 1 2 2 2 2 
2 1 1 1 1 1 1 2 2 
2 2 2 1 1 1 1 1 1 
1 1 1 1 1 1 1 1 0 
0 0 0 0 0 0 0 0 0 
0 0 0 0 0 0 0 0 0 
0 0 0 0 0 0 2 2 2 
2 2 2 1 1 1 1 2 2 
2 2 2 1 2 2 2 2 2 
2 1 1 1 2 2 2 2 2 
1 1 1 1 1 1 2 2 2 
2 1 1 1 1 1 2 2 2 
2 2 1 1 1 1 1 1 2 
2 2 2 2 1 1 1 1 2 
2 2 2 1 1 1 1 1 1 
0 0 0 0 0 0 0 0 0 
0 0 0 0 0 0 0 0 0 
0 0 0 0 0 0 0 2 2 
2 2 2 2 1 1 1 1 1 
2 2 2 1 1 2 2 2 2 
2 1 1 1 1 2 2 2 2 
2 2 1 1 1 1 1 2 2 
2 2 1 1 1 1 1 2 2 
2 2 2 1 1 1 1 1 1 
2 2 2 2 2 2 1 1 2 
2 2 2 2 2 1 1 1 1 
1 0 0 0 0 0 0 0 0 
0 0 0 0 0 0 0 0 0 
0 0 0 0 0 0 0 0 2 
2 2 2 2 2 1 1 1 1 
1 1 1 1 1 1 2 2 2 
2 1 1 1 1 1 1 2 2 
2 2 2 2 2 2 2 2 2 
2 2 1 1 1 1 1 1 2 
2 2 2 2 1 1 1 1 1 
1 2 2 2 2 2 2 1 1 
2 2 2 2 2 2 1 1 1 
1 1 0 0 0 0 0 0 0 
0 0 0 0 0 0 0 0 0 
0 0 0 0 0 0 0 0 0 
1 1 1 1 1 1 1 2 2 
2 2 2 1 1 1 1 1 1 
1 1 1 1 1 1 1 1 1 
2 2 2 1 2 2 2 2 2 
1 1 1 2 2 2 2 2 1 
2 2 2 2 2 1 1 1 1 
1 1 2 2 2 2 2 1 1 
1 2 2 2 2 2 1 1 1 
1 1 1 0 0 0 0 0 0 
0 0 0 0 0 0 0 0 0 
0 0 0 0 0 0 0 0 0 
0 1 1 1 1 1 1 1 2 
2 2 2 2 1 1 1 1 1 
1 1 2 2 2 1 1 1 1 
1 1 1 1 1 2 2 2 2 
2 1 1 1 2 2 2 2 2 
2 1 1 1 1 1 2 2 2 
2 2 1 1 1 1 1 1 1 
1 1 1 2 2 2 1 1 1 
1 1 1 1 0 0 0 0 0 
0 0 0 0 0 0 0 0 0 
0 0 0 0 0 0 0 0 0 
0 0 1 1 1 1 1 1 1 
2 2 2 2 2 1 1 1 1 
1 1 2 2 2 2 2 1 1 
1 2 2 1 1 1 1 2 2 
2 2 1 1 1 2 2 2 2 
2 2 1 1 1 1 1 2 2 
2 2 2 1 1 1 1 2 2 
2 1 1 1 1 1 1 1 1 
1 1 1 1 1 0 0 0 0 
0 0 0 0 0 0 0 0 0 
0 0 0 0 0 0 0 0 0 
0 0 0 2 2 2 2 1 1 
1 2 2 2 2 2 1 2 2 
2 2 2 2 2 2 2 2 1 
2 2 2 2 2 1 1 1 2 
2 2 2 1 1 1 2 2 2 
2 2 2 1 1 1 1 1 2 
2 2 2 2 1 1 1 2 2 
2 2 2 1 1 1 1 1 2 
2 2 2 2 2 2 0 0 0 
0 0 0 0 0 0 0 0 0 
0 0 0 0 0 0 0 0 0 
0 0 0 0 2 2 2 2 2 
1 1 2 2 2 2 2 2 2 
2 2 2 1 2 2 2 2 1 
1 1 2 2 2 2 1 1 1 
1 2 2 1 1 1 1 2 2 
1 1 1 1 1 1 1 1 1 
1 2 2 2 1 1 1 1 2 
2 2 2 2 1 1 1 1 1 
2 2 2 2 2 2 2 0 0 
0 0 0 0 0 0 0 0 0 
0 0 0 0 0 0 0 0 0 
0 0 0 0 0 2 2 2 2 
2 2 1 1 2 2 2 1 1 
2 2 2 2 1 1 2 2 1 
1 1 1 2 2 2 2 1 1 
1 1 1 1 1 1 1 1 1 
1 1 1 1 2 2 2 1 1 
1 1 1 2 1 1 1 1 1 
2 2 2 2 2 1 1 1 1 
1 2 2 2 2 2 2 2 0 
0 0 0 0 0 0 0 0 0 
0 0 0 0 0 0 0 0 0 
0 0 0 0 0 0 2 2 2 
2 2 2 1 1 1 1 1 1 
1 2 2 2 2 1 1 1 1 
1 1 1 1 2 2 2 2 1 
1 1 1 1 1 1 1 1 2 
1 1 1 1 1 2 2 2 2 
2 1 1 2 2 1 1 1 1 
1 2 2 2 2 1 2 2 2 
2 1 1 1 2 2 2 2 2 
0 0 0 0 0 0 0 0 0 
0 0 0 0 0 0 0 0 0 
0 0 0 0 0 0 0 2 2 
2 2 2 2 1 1 1 1 1 
1 1 2 2 2 2 1 1 1 
2 1 1 1 1 1 2 2 2 
1 1 2 2 2 1 1 1 2 
2 2 1 1 1 1 2 2 2 
2 2 1 2 2 2 1 1 2 
2 2 1 1 1 1 1 2 2 
2 2 1 1 1 1 1 1 1 
1 0 0 0 0 0 0 0 0 
0 0 0 0 0 0 0 0 0 
0 0 0 0 0 0 0 0 1 
1 1 1 1 1 1 1 1 1 
1 1 1 1 2 2 1 1 1 
1 2 2 1 1 1 1 1 1 
1 1 2 2 2 2 2 1 2 
2 2 2 2 1 1 1 2 2 
2 2 2 2 2 2 2 2 2 
2 2 2 2 1 1 1 1 2 
2 2 2 1 1 1 1 1 1 
1 1 0 0 0 0 0 0 0 
0 0 0 0 0 0 0 0 0 
0 0 0 0 0 0 0 0 0 
1 1 1 1 1 1 1 1 1 
1 1 1 1 1 1 1 1 1 
1 1 2 2 2 2 2 1 1 
1 1 1 2 2 2 2 2 2 
2 2 2 2 2 1 1 1 2 
2 2 2 1 2 2 2 2 2 
2 2 2 2 2 1 1 1 1 
2 2 2 2 1 1 1 1 1 
1 1 1 0 0 0 0 0 0 
0 0 0 0 0 0 0 0 0 
0 0 0 0 0 0 0 0 0 
0 1 1 1 1 1 1 1 1 
1 1 1 1 1 1 1 1 1 
1 1 1 2 2 2 2 2 1 
1 1 1 1 2 2 2 2 2 
1 1 2 2 2 2 2 1 1 
1 1 1 1 1 2 2 2 2 
1 1 2 2 2 2 1 1 1 
1 2 2 2 2 1 1 1 1 
1 1 1 1 0 0 0 0 0 
0 0 0 0 0 0 0 0 0 
0 0 0 0 0 0 0 0 0 
0 0 1 1 1 1 1 1 1 
1 1 2 2 1 1 1 2 2 
2 2 1 1 2 2 2 2 2 
1 1 1 1 1 2 2 2 2 
1 1 1 1 1 2 2 2 1 
1 1 1 1 1 1 1 2 2 
1 1 1 1 2 2 2 1 1 
1 1 2 2 2 2 1 1 1 
1 1 1 1 1 0 0 0 0 
0 0 0 0 0 0 0 0 0 
0 0 0 0 0 0 0 0 0 
0 0 0 2 2 2 2 2 2 
1 1 2 2 2 2 1 2 2 
2 2 2 2 1 2 2 2 2 
2 1 1 1 1 1 2 2 2 
2 1 1 1 1 1 1 1 1 
1 1 1 1 1 1 1 1 2 
2 1 1 1 1 1 1 1 1 
1 1 1 1 1 2 2 1 1 
1 2 2 1 1 1 0 0 0 
0 0 0 0 0 0 0 0 0 
0 0 0 0 0 0 0 0 0 
0 0 0 0 2 2 2 2 2 
2 1 2 2 2 2 2 1 2 
2 2 2 2 2 1 1 1 1 
1 1 1 1 1 1 1 1 1 
1 1 1 1 1 1 1 1 1 
1 2 2 2 1 1 1 1 2 
2 2 2 1 1 1 1 1 2 
2 2 2 2 1 1 1 1 1 
2 2 2 2 2 2 2 0 0 
0 0 0 0 0 0 0 0 0 
0 0 0 0 0 0 0 0 0 
0 0 0 0 0 2 2 2 2 
2 2 1 2 2 2 2 2 1 
1 2 2 2 2 2 1 1 1 
1 1 1 2 2 2 2 1 1 
1 1 1 2 2 2 2 1 1 
1 2 2 2 2 2 1 1 2 
2 2 2 2 2 1 1 1 1 
2 2 2 2 2 1 1 1 1 
1 2 2 2 2 2 2 2 0 
0 0 0 0 0 0 0 0 0 
0 0 0 0 0 0 0 0 0 
0 0 0 0 0 0 2 2 2 
2 2 1 1 1 2 2 2 2 
1 1 1 1 2 2 1 1 1 
1 1 1 2 2 2 2 2 1 
1 1 1 2 2 2 2 2 2 
1 2 2 2 2 2 2 2 1 
1 2 2 2 2 2 1 1 1 
1 2 2 2 2 2 1 1 1 
1 1 2 2 2 2 2 2 2 
0 0 0 0 0 0 0 0 0 
0 0 0 0 0 0 0 0 0 
0 0 0 0 0 0 0 2 2 
2 1 1 1 1 1 2 2 2 
1 1 1 1 1 1 1 1 1 
1 1 1 1 2 2 2 2 2 
1 1 1 1 2 2 2 2 2 
2 1 2 2 2 2 2 2 2 
1 1 1 2 2 2 2 1 1 
1 1 2 2 2 2 2 1 1 
1 1 1 1 1 1 1 1 1 
2 0 0 0 0 0 0 0 0 
0 0 0 0 0 0 0 0 0 
0 0 0 0 0 0 0 0 1 
1 1 1 1 1 1 1 2 2 
1 1 1 1 1 1 1 2 2 
2 2 1 1 1 2 2 2 2 
2 1 1 1 1 2 2 2 2 
2 1 1 2 2 2 2 2 2 
2 1 1 1 1 1 1 1 1 
1 1 1 2 2 2 2 1 1 
1 1 1 1 1 1 1 1 2 
2 2 0 0 0 0 0 0 0 
0 0 0 0 0 0 0 0 0 
0 0 0 0 0 0 0 0 0 
1 1 1 1 1 1 1 1 1 
1 1 1 1 1 1 1 2 2 
2 2 2 2 1 1 2 2 2 
2 2 1 1 1 1 2 2 2 
1 1 1 1 1 1 1 1 1 
1 1 1 1 1 1 1 1 1 
2 2 2 2 1 1 1 1 2 
2 2 2 2 1 1 1 1 2 
2 2 2 0 0 0 0 0 0 
0 0 0 0 0 0 0 0 0 
0 0 0 0 0 0 0 0 0 
0 2 2 2 2 2 2 1 1 
2 2 2 2 2 1 1 1 2 
2 2 2 2 2 2 1 1 1 
2 2 2 1 1 1 1 1 1 
1 1 1 1 1 1 1 1 1 
1 1 1 2 2 1 1 1 1 
1 2 2 2 2 1 1 1 1 
2 2 2 2 2 1 1 1 1 
2 2 2 2 0 0 0 0 0 
0 0 0 0 0 0 0 0 0 
0 0 0 0 0 0 0 0 0 
0 0 2 2 2 2 2 2 1 
1 2 2 2 2 2 2 1 1 
1 2 2 2 2 2 1 1 1 
1 1 1 1 2 2 2 2 1 
1 1 1 1 1 2 2 1 1 
1 1 1 1 2 2 2 1 1 
1 2 2 2 2 2 1 1 1 
2 2 2 2 2 2 1 1 1 
1 2 2 2 2 0 0 0 0 
0 0 0 0 0 0 0 0 0 
0 0 0 0 0 0 0 0 0 
0 0 0 2 2 2 2 2 2 
1 1 2 2 2 2 2 2 1 
1 1 1 2 2 2 1 1 1 
1 1 1 1 1 2 2 2 2 
2 1 1 1 1 2 2 2 2 
1 1 1 1 1 2 2 2 2 
1 1 2 2 2 2 2 1 1 
1 2 2 2 2 2 2 1 1 
1 1 2 2 2 2 0 0 0 
0 0 0 0 0 0 0 0 0 
0 0 0 0 0 0 0 0 0 
0 0 0 0 2 2 2 2 2 
1 1 1 1 2 2 2 2 2 
1 1 1 1 1 1 2 2 2 
1 1 1 1 1 1 2 2 2 
2 2 2 1 1 2 2 2 2 
2 2 1 1 1 2 2 2 2 
2 1 1 1 2 2 2 2 1 
1 1 2 2 2 2 2 2 1 
2 2 2 1 1 2 2 0 0 
0 0 0 0 0 0 0 0 0 
0 0 0 0 0 0 0 0 0 
0 0 0 0 0 2 2 1 1 
1 1 1 1 1 2 2 2 2 
2 1 1 1 1 1 1 2 2 
2 2 1 1 1 1 1 2 2 
2 2 2 2 1 1 2 2 2 
2 2 2 1 1 1 2 2 2 
2 2 1 1 1 1 2 2 1 
1 1 1 1 1 1 1 1 1 
1 2 2 2 1 1 1 1 0 
0 0 0 0 0 0 0 0 0 
0 0 0 0 0 0 0 0 0 
0 0 0 0 0 0 2 2 1 
1 1 1 1 1 1 1 1 1 
1 1 1 1 1 1 1 1 2 
2 2 2 2 1 1 1 1 2 
2 2 2 2 1 1 1 1 2 
2 2 2 1 1 1 1 1 2 
2 2 1 1 1 1 1 1 1 
1 1 1 1 1 1 1 1 1 
1 2 2 2 2 1 1 1 1 
0 0 0 0 0 0 0 0 0 
0 0 0 0 0 0 0 0 0 
0 0 0 0 0 0 0 2 2 
2 1 1 1 1 2 2 2 1 
1 1 1 2 2 2 2 1 1 
2 2 2 2 2 1 2 2 2 
1 1 1 1 1 1 1 1 1 
1 2 2 1 1 1 1 1 1 
1 2 1 1 1 1 1 1 1 
2 2 1 1 1 1 1 1 1 
1 1 2 2 2 2 1 1 1 
1 0 0 0 0 0 0 0 0 
0 0 0 0 0 0 0 0 0 
0 0 0 0 0 0 0 0 2 
2 2 2 1 1 2 2 2 2 
1 1 1 1 2 2 2 2 2 
1 2 2 2 2 1 1 2 2 
2 2 1 1 1 1 1 1 1 
1 1 1 1 1 1 1 1 1 
1 1 2 1 1 1 1 1 2 
2 2 2 2 1 1 1 1 1 
1 1 1 2 2 2 2 1 1 
1 1 0 0 0 0 0 0 0 
0 0 0 0 0 0 0 0 0 
0 0 0 0 0 0 0 0 0 
2 2 2 2 2 2 2 2 2 
2 1 1 1 1 2 2 2 2 
2 1 2 2 1 1 1 1 2 
2 2 2 1 1 1 1 1 1 
1 1 1 2 2 2 1 1 1 
1 2 2 2 2 1 1 1 2 
2 2 2 2 1 1 1 1 2 
2 2 2 1 2 2 2 2 1 
1 1 1 0 0 0 0 0 0 
0 0 0 0 0 0 0 0 0 
0 0 0 0 0 0 0 0 0 
0 2 2 2 2 1 1 2 2 
2 2 1 1 1 1 2 2 2 
2 2 1 1 1 1 1 1 1 
2 2 2 2 1 1 1 1 1 
1 1 1 2 2 2 2 2 1 
1 2 2 2 2 2 1 1 1 
2 2 2 2 2 1 1 1 1 
2 2 2 2 1 1 1 1 1 
1 1 1 1 0 0 0 0 0 
0 0 0 0 0 0 0 0 0 
0 0 0 0 0 0 0 0 0 
0 0 2 2 1 1 1 1 2 
2 2 2 1 1 1 1 2 2 
2 2 1 1 1 1 1 1 1 
1 2 2 2 2 1 1 1 1 
2 2 1 2 2 2 2 2 2 
1 1 2 2 2 2 2 1 1 
1 1 2 2 2 1 1 1 1 
1 2 2 2 2 1 1 1 1 
1 2 2 2 2 0 0 0 0 
0 0 0 0 0 0 0 0 0 
0 0 0 0 0 0 0 0 0 
0 0 0 2 2 1 1 1 1 
1 2 2 2 1 1 1 1 1 
1 1 1 1 1 1 1 1 1 
1 1 2 2 2 2 1 1 1 
2 2 2 1 2 2 2 2 2 
1 1 1 2 2 2 2 1 1 
1 1 1 2 2 2 1 1 1 
1 1 2 2 2 2 1 1 1 
1 1 2 2 2 2 0 0 0 
0 0 0 0 0 0 0 0 0 
0 0 0 0 0 0 0 0 0 
0 0 0 0 2 2 2 1 1 
1 1 1 1 2 2 2 2 2 
1 1 1 1 1 1 1 1 1 
1 1 1 2 2 2 2 1 1 
2 2 2 2 1 1 2 2 2 
1 1 1 1 2 2 2 2 1 
1 1 1 1 2 2 2 1 1 
1 1 1 2 2 2 2 1 1 
1 1 1 2 2 2 2 0 0 
0 0 0 0 0 0 0 0 0 
0 0 0 0 0 0 0 0 0 
0 0 0 0 0 2 2 2 2 
1 1 1 1 1 2 2 2 2 
2 2 1 1 1 1 1 2 2 
2 2 2 2 1 1 1 1 1 
2 2 2 2 2 1 1 1 2 
2 1 1 1 1 2 2 2 1 
1 1 1 1 1 1 1 1 1 
1 1 1 1 2 2 2 2 1 
1 1 1 2 2 2 2 2 0 
0 0 0 0 0 0 0 0 0 
0 0 0 0 0 0 0 0 0 
0 0 0 0 0 0 2 2 2 
2 1 1 1 1 1 2 2 2 
2 2 2 1 1 1 1 2 2 
2 2 2 2 2 1 1 1 1 
1 2 2 2 2 2 1 1 1 
1 1 1 1 1 1 1 1 1 
1 2 2 2 2 2 1 1 1 
2 2 2 2 1 1 1 1 1 
1 1 1 1 2 2 2 2 2 
0 0 0 0 0 0 0 0 0 
0 0 0 0 0 0 0 0 0 
0 0 0 0 0 0 0 2 2 
2 2 1 1 1 1 1 2 2 
2 2 2 2 1 1 1 1 2 
2 2 2 2 2 2 1 1 1 
1 1 2 2 2 2 2 1 1 
1 1 1 1 1 1 1 1 1 
1 1 2 2 2 2 2 1 1 
1 2 2 2 2 1 1 1 1 
1 1 1 1 1 1 2 2 2 
2 0 0 0 0 0 0 0 0 
0 0 0 0 0 0 0 0 0 
0 0 0 0 0 0 0 0 0 
2 2 2 2 2 2 2 1 1 
2 2 2 2 1 1 1 1 1 
1 2 2 2 2 2 2 1 1 
1 1 1 2 2 2 2 2 1 
1 1 1 1 1 1 1 1 1 
1 1 1 2 2 2 2 2 1 
1 1 2 2 2 2 1 1 1 
1 1 1 1 1 1 1 1 2 
2 0 0 0 0 0 0 0 0 
0 0 0 0 0 0 0 0 0 
0 0 0 0 0 0 0 0 0 
0 0 2 2 2 2 2 2 1 
1 1 1 1 1 1 1 1 1 
1 1 2 1 1 1 1 1 1 
1 1 1 1 1 1 1 1 1 
1 1 1 1 1 2 2 2 1 
1 1 1 1 2 2 2 2 1 
1 1 1 2 2 2 2 1 1 
1 1 1 2 1 1 1 1 1 
1 0 0 0 0 0 0 0 0 
0 0 0 0 0 0 0 0 0 
0 0 0 0 0 0 0 0 0 
0 0 0 0 2 2 2 2 2 
1 1 1 1 2 2 1 1 1 
1 1 2 2 2 1 1 1 1 
1 1 1 1 1 1 1 1 1 
1 1 1 1 2 2 2 2 2 
1 1 1 1 1 2 2 2 2 
1 1 1 1 2 2 2 2 1 
1 1 1 2 2 2 1 1 1 
1 0 0 0 0 0 0 0 0 
0 0 0 0 0 0 0 0 0 
0 0 0 0 0 0 0 0 0 
0 0 0 0 0 0 2 2 2 
2 1 1 1 1 2 2 2 1 
1 1 2 2 2 2 1 1 1 
1 1 1 1 1 2 2 2 1 
1 1 1 1 1 2 2 2 2 
2 2 1 1 1 1 2 2 2 
1 1 1 1 1 2 2 2 2 
1 1 1 2 2 2 2 2 1 
1 0 0 0 0 0 0 0 0 
0 0 0 0 0 0 0 0 0 
0 0 0 0 0 0 0 0 0 
0 0 0 0 0 0 0 0 2 
2 2 1 1 1 1 2 2 2 
2 2 1 2 2 2 2 1 1 
1 1 1 1 1 1 2 2 2 
2 1 1 1 1 1 2 2 2 
2 2 2 1 1 1 1 1 1 
1 1 1 1 1 1 2 2 2 
1 1 1 1 2 2 2 2 2 
2 0 0 0 0 0 0 0 0 
0 0 0 0 0 0 0 0 0 
0 0 0 0 0 0 0 0 0 
0 0 0 0 0 0 0 0 0 
0 2 2 1 1 1 1 2 2 
2 2 2 1 2 2 2 2 1 
1 1 1 1 1 1 1 2 2 
2 2 2 1 1 1 1 2 2 
2 2 2 1 1 1 1 1 1 
1 1 2 2 2 2 1 1 2 
1 1 1 1 1 2 2 2 2 
2 0 0 0 0 0 0 0 0 
0 0 0 0 0 0 0 0 0 
0 0 0 0 0 0 0 0 0 
0 0 0 0 0 0 0 0 0 
0 0 0 2 1 1 1 1 2 
2 2 1 1 1 1 2 2 2 
1 1 1 1 1 1 1 1 2 
2 2 2 2 1 1 1 1 2 
2 2 2 2 1 1 1 1 1 
1 1 2 2 2 2 2 1 1 
1 1 1 1 1 1 1 2 2 
2 0 0 0 0 0 0 0 0 
0 0 0 0 0 0 0 0 0 
0 0 0 0 0 0 0 0 0 
0 0 0 0 0 0 0 0 0 
0 0 0 0 0 1 1 1 1 
1 2 1 1 1 1 1 1 1 
2 2 2 2 2 1 1 1 1 
2 2 2 2 1 1 1 1 1 
1 2 2 1 1 2 2 2 2 
1 1 1 2 2 2 2 2 1 
1 1 1 1 1 1 1 1 1 
2 0 0 0 0 0 0 0 0 
0 0 0 0 0 0 0 0 0 
0 0 0 0 0 0 0 0 0 
0 0 0 0 0 0 0 0 0 
0 0 0 0 0 0 0 2 2 
2 2 2 1 1 1 1 1 1 
1 2 2 2 2 2 1 1 1 
1 2 2 2 2 1 1 1 1 
1 1 1 1 1 1 2 2 2 
2 2 2 1 2 2 2 2 2 
1 1 1 2 2 2 2 1 1 
1 0 0 0 0 0 0 0 0 
0 0 0 0 0 0 0 0 0 
0 0 0 0 0 0 0 0 0 
0 0 0 0 0 0 0 0 0 
0 0 0 0 0 0 0 0 0 
2 2 2 2 2 1 1 1 1 
1 2 2 2 2 2 2 1 1 
1 1 2 2 2 2 1 1 1 
1 1 1 1 1 1 1 2 2 
2 2 2 2 1 2 2 2 2 
1 1 1 1 2 2 2 2 2 
2 0 0 0 0 0 0 0 0 
0 0 0 0 0 0 0 0 0 
0 0 0 0 0 0 0 0 0 
0 0 0 0 0 0 0 0 0 
0 0 0 0 0 0 0 0 0 
0 0 2 2 2 2 2 1 1 
1 1 2 2 2 2 2 2 1 
1 1 1 1 1 1 1 1 1 
1 1 1 1 1 1 1 1 1 
2 2 2 2 1 1 1 2 2 
1 1 1 1 1 2 2 2 2 
2 0 0 0 0 0 0 0 0 
0 0 0 0 0 0 0 0 0 
0 0 0 0 0 0 0 0 0 
0 0 0 0 0 0 0 0 0 
0 0 0 0 0 0 0 0 0 
0 0 0 0 2 2 2 2 1 
1 1 1 2 2 2 2 2 1 
1 1 1 1 1 1 1 1 2 
2 2 2 2 2 1 1 1 1 
1 1 1 1 1 1 1 1 1 
1 1 1 1 1 1 2 2 2 
2 0 0 0 0 0 0 0 0 
0 0 0 0 0 0 0 0 0 
0 0 0 0 0 0 0 0 0 
0 0 0 0 0 0 0 0 0 
0 0 0 0 0 0 0 0 0 
0 0 0 0 0 0 2 2 2 
1 1 1 1 1 2 2 1 1 
1 1 1 1 1 1 1 1 1 
2 2 2 2 2 2 1 1 1 
2 2 2 2 1 1 1 1 1 
1 2 2 2 2 2 1 2 2 
2 0 0 0 0 0 0 0 0 
0 0 0 0 0 0 0 0 0 
0 0 0 0 0 0 0 0 0 
0 0 0 0 0 0 0 0 0 
0 0 0 0 0 0 0 0 0 
0 0 0 0 0 0 0 0 2 
1 1 1 1 1 1 1 1 1 
1 1 1 1 1 1 1 1 1 
1 2 2 2 2 2 2 1 1 
2 2 2 2 2 2 1 1 1 
1 2 2 2 2 2 2 2 2 
2 0 0 0 0 0 0 0 0 
0 0 0 0 0 0 0 0 0 
0 0 0 0 0 0 0 0 0 
0 0 0 0 0 0 0 0 0 
0 0 0 0 0 0 0 0 0 
0 0 0 0 0 0 0 0 0 
0 1 1 1 1 1 1 1 1 
1 1 1 1 1 1 1 1 1 
1 1 2 2 2 2 2 2 1 
1 2 2 2 2 2 2 2 1 
1 1 2 2 2 2 2 2 2 
0 0 0 0 0 0 0 0 0 
0 0 0 0 0 0 0 0 0 
0 0 0 0 0 0 0 0 0 
0 0 0 0 0 0 0 0 0 
0 0 0 0 0 0 0 0 0 
0 0 0 0 0 0 0 0 0 
0 0 0 1 1 1 1 1 1 
1 1 1 1 1 1 1 1 1 
1 1 1 2 2 2 2 2 2 
1 1 2 2 2 2 2 2 2 
1 1 1 2 2 2 2 2 2 
0 0 0 0 0 0 0 0 0 
0 0 0 0 0 0 0 0 0 
0 0 0 0 0 0 0 0 0 
0 0 0 0 0 0 0 0 0 
0 0 0 0 0 0 0 0 0 
0 0 0 0 0 0 0 0 0 
0 0 0 0 0 0 0 0 0 
0 0 0 0 0 0 0 0 0 
0 0 0 0 0 0 0 0 0 
0 0 0 0 0 0 0 0 0 
0 0 0 0 0 0 0 0 0 
0 0 0 0 0 0 0 0 0 
0 0 0 0 0 0 0 0 0 
0 0 0 0 0 0 0 0 0 
0 0 0 0 0 0 0 0 0 
0 0 0 0 0 0 0 0 0 
0 0 0 0 0 0 0 0 0 
0 0 0 0 0 0 0 0 0 
0 0 0 0 0 0 0 0 0 
0 0 0 0 0 0 0 0 0 
0 0 0 0 0 0 0 0 0 
0 0 0 0 0 0 0 0 0 
0 0 0 0 0 0 0 0 0 
0 0 0 0 0 0 0 0 0 
0 0 0 0 0 0 0 0 0 
0 0 0 0 0 0 0 0 0 
0 0 0 0 0 0 0 0 0 
0 0 0 0 0 0 0 0 0 
0 0 0 0 0 0 0 0 0 
0 0 0 0 0 0 0 0 0 
0 0 0 0 0 0 0 0 0 
0 0 0 0 0 0 0 0 0 
0 0 0 0 0 0 0 0 0 
0 0 0 0 0 0 0 0 0 
0 0 0 0 0 0 0 0 0 
0 0 0 0 0 0 0 0 0 
0 0 0 0 0 0 0 0 0 
0 0 0 0 0 0 0 0 0 
0 0 0 0 0 0 0 0 0 
0 0 0 0 0 0 0 0 0 
0 0 0 0 0 0 0 0 0 
0 0 0 0 0 0 0 0 0 
0 0 0 0 0 0 0 0 0 
0 0 0 0 0 0 0 0 0 
0 0 0 0 0 0 0 0 0 
0 0 0 0 0 0 0 0 0 
0 0 0 0 0 0 0 0 0 
0 0 0 0 0 0 0 0 0 
0 0 0 0 0 0 0 0 0 
0 0 0 0 0 0 0 0 0 
0 0 0 0 0 0 0 0 0 
0 0 0 0 0 0 0 0 0 
0 0 0 0 0 0 0 0 0 
0 0 0 0 0 0 0 0 0 
0 0 0 0 0 0 0 0 0 
0 0 0 0 0 0 0 0 0 
0 0 0 0 0 0 0 0 0 
0 0 0 0 0 0 0 0 0 
0 0 0 0 0 0 0 0 0 
0 0 0 0 0 0 0 0 0 
0 0 0 0 0 0 0 0 0 
0 0 0 0 0 0 0 0 0 
0 0 0 0 0 0 0 0 0 
0 0 0 0 0 0 0 0 0 
0 0 0 0 0 0 0 0 0 
0 0 0 0 0 0 0 0 0 
0 0 0 0 0 0 0 0 0 
0 0 0 0 0 0 0 0 0 
0 0 0 0 0 0 0 0 0 
0 0 0 0 0 0 0 0 0 
0 0 0 0 0 0 0 0 0 
0 0 0 0 0 0 0 0 0 
0 0 0 0 0 0 0 0 0 
0 0 0 0 0 0 0 0 0 
0 0 0 0 0 0 0 0 0 
0 0 0 0 0 0 0 0 0 
0 0 0 0 0 0 0 0 0 
0 0 0 0 0 0 0 0 0 
0 0 0 0 0 0 0 0 0 
0 0 0 0 0 0 0 0 0 
0 0 0 0 0 0 0 0 0 
0 0 0 0 0 0 0 0 0 
0 0 0 0 0 0 0 0 0 
0 0 0 0 0 0 0 0 0 
0 0 0 0 0 0 0 0 0 
0 0 0 0 0 0 0 0 0 
0 0 0 0 0 0 0 0 0 
0 0 0 0 0 0 0 0 0 
0 0 0 0 0 0 0 0 0 
0 0 0 0 0 0 0 0 0 
0 0 0 0 0 0 0 0 0 
0 0 0 0 0 0 0 0 0 
0 0 0 0 0 0 0 0 0 
0 0 0 0 0 0 0 0 0 
0 0 0 0 0 0 0 0 0 
0 0 0 0 0 0 0 0 0 
0 0 0 0 0 0 0 0 0 
0 0 0 0 0 0 0 0 0 
0 0 0 0 0 0 0 0 0 
0 0 0 0 0 0 0 0 0 
0 0 0 0 0 0 0 0 0 
0 0 0 0 0 0 0 0 0 
0 0 0 0 0 0 0 0 0 
0 0 0 0 0 0 0 0 0 
0 0 0 0 0 0 0 0 0 
0 0 0 0 0 0 0 0 0 
0 0 0 0 0 0 0 0 0 
0 0 0 0 0 0 0 0 0 
0 0 0 0 0 0 0 0 0 
0 0 0 0 0 0 0 0 0 
0 0 0 0 0 0 0 0 0 
0 0 0 0 0 0 0 0 0 
0 0 0 0 0 0 0 0 0 
0 0 0 0 0 0 0 0 0 
0 
CellId 1 10000 long
0 0 0 0 0 0 0 0 0 
0 0 0 0 0 0 0 0 0 
0 0 0 0 0 0 0 0 0 
0 0 0 0 0 0 0 0 0 
0 0 0 0 0 0 0 0 0 
0 0 0 0 0 0 0 0 0 
0 0 0 0 0 0 0 0 0 
0 0 0 0 0 0 0 0 0 
0 0 0 0 0 0 0 0 0 
0 0 0 0 0 0 0 0 0 
0 0 0 0 0 0 0 0 0 
0 0 0 0 0 0 0 0 0 
0 0 0 0 0 0 0 0 0 
0 0 0 0 0 0 0 0 0 
0 0 0 0 0 0 0 0 0 
0 0 0 0 0 0 0 0 0 
0 0 0 0 0 0 0 0 0 
0 0 0 0 0 0 0 0 0 
0 0 0 0 0 0 0 0 0 
0 0 0 0 0 0 0 0 0 
0 0 0 0 0 0 0 0 0 
0 0 0 0 0 0 0 0 0 
0 0 0 0 0 0 0 0 0 
0 0 0 0 0 0 0 0 0 
0 0 0 0 0 0 0 0 0 
0 0 0 0 0 0 0 0 0 
0 0 0 0 0 0 0 0 0 
0 0 0 0 0 0 0 0 0 
0 0 0 0 0 0 0 0 0 
0 0 0 0 0 0 0 0 0 
0 0 0 0 0 0 0 0 0 
0 0 0 0 0 0 0 0 0 
0 0 0 0 0 0 0 0 0 
0 0 0 0 0 0 0 0 0 
0 0 0 0 0 0 0 0 0 
0 0 0 0 0 0 0 0 0 
0 0 0 0 0 0 0 0 0 
0 0 0 0 0 0 0 0 0 
0 0 0 0 0 0 0 0 0 
0 0 0 0 0 0 0 0 0 
0 0 0 0 0 0 0 0 0 
0 0 0 0 0 0 0 0 0 
0 0 0 0 0 0 0 0 0 
0 0 0 0 0 0 0 0 0 
0 0 0 0 0 0 0 0 0 
0 0 0 0 0 0 0 0 0 
0 0 0 0 0 0 0 0 0 
0 0 0 0 0 0 0 0 0 
0 0 0 0 0 0 0 0 0 
0 0 0 0 0 0 0 0 0 
0 0 0 0 0 0 0 0 0 
0 0 0 0 0 0 0 0 0 
0 0 0 0 0 0 0 0 0 
0 0 0 0 0 0 0 0 0 
0 0 0 0 0 0 0 0 0 
0 0 0 0 0 0 0 0 0 
0 0 0 0 0 0 0 0 0 
0 0 0 0 0 0 0 0 0 
0 0 0 0 0 0 0 0 0 
0 0 0 0 0 0 0 0 0 
0 0 0 0 0 0 0 0 0 
0 0 0 0 0 0 0 0 0 
0 0 0 0 0 0 0 0 0 
0 0 0 0 0 0 0 0 0 
0 0 0 0 0 0 0 0 0 
0 0 0 0 0 0 0 0 0 
0 0 0 0 0 0 0 0 0 
0 0 0 0 0 0 0 0 0 
0 0 0 0 0 0 0 0 0 
0 0 0 0 0 0 0 0 0 
0 0 0 0 0 0 0 0 0 
0 0 0 0 0 0 0 0 0 
0 0 0 0 0 0 0 0 0 
0 0 0 0 0 0 0 0 0 
0 0 0 0 0 0 0 0 0 
0 0 0 0 0 0 0 0 0 
0 0 0 0 0 0 0 0 0 
0 0 0 0 0 0 0 0 0 
0 0 0 0 0 0 0 0 0 
0 0 0 0 0 0 0 0 0 
0 0 0 0 0 0 0 0 0 
0 0 0 0 0 0 0 0 0 
0 0 0 0 0 0 0 0 0 
0 0 0 0 0 0 0 0 0 
0 0 0 0 0 0 0 0 0 
0 0 0 0 0 0 0 0 0 
0 0 0 0 0 0 0 0 0 
0 0 0 0 0 0 0 0 0 
0 0 0 0 0 0 0 0 0 
0 0 0 0 0 0 0 0 0 
0 0 0 0 0 0 0 0 0 
0 0 0 0 0 0 0 0 0 
0 0 0 0 0 0 0 0 0 
0 0 0 0 0 0 0 0 0 
0 0 0 0 0 0 0 0 0 
0 0 0 0 0 0 0 0 0 
0 0 0 0 0 0 0 0 0 
0 0 0 0 0 0 0 0 0 
0 0 0 0 0 0 0 0 0 
0 0 0 0 0 0 0 0 0 
0 0 0 0 0 0 0 0 0 
0 0 0 0 0 0 0 0 0 
0 0 0 0 0 0 0 0 0 
0 0 0 0 0 0 0 0 0 
0 0 0 0 0 0 0 0 0 
0 0 0 0 0 0 0 0 0 
0 0 0 0 0 0 0 0 0 
0 0 0 0 0 0 0 0 0 
0 0 0 0 0 0 0 0 0 
0 0 0 0 0 0 0 0 0 
0 0 0 0 0 0 0 0 0 
0 0 0 0 0 0 0 0 0 
0 0 0 0 0 0 0 0 0 
0 0 0 0 0 0 0 0 0 
0 0 0 0 0 0 0 0 0 
0 0 0 0 0 0 0 0 0 
0 0 0 0 0 0 0 0 0 
0 0 0 0 0 0 0 0 0 
0 0 0 0 0 0 0 0 0 
0 0 0 0 0 0 0 0 0 
0 0 0 0 0 0 0 0 0 
0 0 0 0 0 0 0 0 0 
0 0 0 0 0 0 0 0 0 
0 0 0 0 0 0 0 0 0 
0 0 0 0 0 0 0 0 0 
0 0 0 0 0 0 0 0 0 
0 0 0 0 0 0 0 0 0 
0 0 0 0 0 0 0 0 0 
0 0 0 0 0 0 0 0 0 
0 0 0 0 0 0 0 0 0 
0 0 0 0 0 0 0 0 0 
0 0 0 0 0 0 0 0 0 
0 0 0 0 0 0 0 0 0 
0 0 0 0 0 0 0 0 0 
0 0 0 0 0 0 0 0 0 
0 0 0 0 0 0 0 0 0 
0 0 0 0 0 0 0 0 0 
0 0 0 0 0 0 0 0 0 
0 0 0 0 0 0 0 0 0 
0 0 0 0 0 0 0 0 0 
0 0 0 0 0 0 0 0 0 
0 0 0 0 0 0 0 0 0 
0 0 0 0 0 0 0 0 0 
0 0 0 0 0 0 0 0 0 
0 0 0 0 0 0 0 0 0 
0 0 0 0 0 0 0 0 0 
0 0 0 0 0 0 0 0 0 
0 0 0 0 0 0 0 0 0 
0 0 0 0 0 0 0 0 0 
0 0 0 0 0 0 0 0 0 
0 0 0 0 0 0 0 0 0 
0 0 0 0 0 0 0 0 0 
0 0 0 0 0 0 0 0 0 
0 0 0 0 0 0 0 0 0 
0 0 0 0 0 0 0 0 0 
0 0 0 0 0 0 0 0 0 
0 0 0 0 0 0 0 0 0 
0 0 0 0 0 0 0 0 0 
0 0 0 0 0 0 0 0 0 
0 0 0 0 0 0 0 0 0 
0 0 0 0 0 0 0 0 0 
0 0 0 0 0 0 0 0 0 
0 0 0 0 0 0 0 0 0 
0 0 0 0 0 0 0 0 0 
0 0 0 0 0 0 0 0 0 
0 0 0 0 0 0 0 0 0 
0 0 0 0 0 0 0 0 0 
0 0 0 0 0 0 0 0 0 
0 0 0 0 0 0 0 0 0 
0 0 0 0 0 0 0 0 0 
0 1 1 1 1 1 1 2 2 
2 2 2 2 12 12 3 3 3 
3 3 3 4 4 4 4 4 5 
5 5 5 14 14 14 14 6 6 
6 6 6 7 7 7 7 7 0 
0 0 0 0 0 0 0 0 0 
0 0 0 0 0 0 0 0 0 
0 0 0 0 0 0 0 0 0 
0 0 0 0 0 0 0 0 0 
0 0 0 0 0 0 0 0 0 
0 0 0 0 0 0 0 0 0 
0 1 1 1 1 1 1 1 2 
2 2 2 2 2 12 12 12 3 
3 3 3 3 4 4 4 4 4 
5 5 5 5 14 14 14 14 6 
6 6 6 6 7 7 7 7 7 
7 0 0 0 0 0 0 0 0 
0 0 0 0 0 0 0 0 0 
0 0 0 0 0 0 0 0 0 
0 0 0 0 0 0 0 0 0 
0 0 0 0 0 0 0 0 0 
0 0 0 0 0 0 0 0 0 
0 1 1 1 1 1 1 1 1 
2 2 2 2 2 2 12 12 12 
3 3 3 3 3 4 4 4 4 
4 5 5 5 5 14 14 14 14 
6 6 6 6 6 7 7 7 7 
7 7 7 0 0 0 0 0 0 
0 0 0 0 0 0 0 0 0 
0 0 0 0 0 0 0 0 0 
0 0 0 0 0 0 0 0 0 
0 0 0 0 0 0 0 0 0 
0 0 0 0 0 0 0 0 0 
0 8 8 1 1 1 1 1 1 
1 2 2 2 2 2 2 12 12 
12 12 3 3 3 3 4 4 4 
4 5 5 5 5 5 14 14 14 
14 6 6 6 6 6 7 7 7 
7 7 7 17 17 0 0 0 0 
0 0 0 0 0 0 0 0 0 
0 0 0 0 0 0 0 0 0 
0 0 0 0 0 0 0 0 0 
0 0 0 0 0 0 0 0 0 
0 0 0 0 0 0 0 0 0 
0 8 8 8 8 9 9 9 9 
9 10 10 10 10 10 2 2 12 
12 12 12 3 3 3 3 4 4 
4 5 5 5 5 5 14 14 14 
14 14 6 6 6 6 6 7 7 
7 7 17 17 17 17 17 0 0 
0 0 0 0 0 0 0 0 0 
0 0 0 0 0 0 0 0 0 
0 0 0 0 0 0 0 0 0 
0 0 0 0 0 0 0 0 0 
0 0 0 0 0 0 0 0 0 
0 8 8 8 8 8 9 9 9 
9 9 10 10 10 10 10 10 12 
12 12 12 12 12 3 3 13 13 
13 13 5 5 5 5 5 14 14 
14 14 14 16 16 16 16 16 16 
16 17 17 17 17 17 17 30 30 
0 0 0 0 0 0 0 0 0 
0 0 0 0 0 0 0 0 0 
0 0 0 0 0 0 0 0 0 
0 0 0 0 0 0 0 0 0 
0 0 0 0 0 0 0 0 0 
0 8 8 8 8 8 8 8 9 
9 9 9 10 10 10 10 10 23 
23 12 12 12 12 12 13 13 13 
13 13 13 13 26 26 26 26 26 
15 15 15 15 15 16 16 16 16 
16 16 17 17 17 17 17 30 30 
30 18 0 0 0 0 0 0 0 
0 0 0 0 0 0 0 0 0 
0 0 0 0 0 0 0 0 0 
0 0 0 0 0 0 0 0 0 
0 0 0 0 0 0 0 0 0 
0 19 19 8 8 8 8 8 8 
9 9 9 9 10 10 10 10 23 
23 23 23 12 12 24 24 24 13 
13 13 13 13 13 26 26 26 26 
26 15 15 15 15 15 16 16 16 
16 16 16 17 17 17 17 30 30 
30 18 18 18 0 0 0 0 0 
0 0 0 0 0 0 0 0 0 
0 0 0 0 0 0 0 0 0 
0 0 0 0 0 0 0 0 0 
0 0 0 0 0 0 0 0 0 
0 19 19 19 19 8 8 8 8 
8 9 9 9 9 10 10 10 23 
23 23 23 23 12 24 24 24 24 
24 13 13 13 13 13 26 26 26 
26 26 15 15 15 15 15 15 16 
16 16 16 16 17 17 17 30 30 
30 30 18 18 18 18 0 0 0 
0 0 0 0 0 0 0 0 0 
0 0 0 0 0 0 0 0 0 
0 0 0 0 0 0 0 0 0 
0 0 0 0 0 0 0 0 0 
0 19 19 19 19 19 21 21 21 
21 21 9 9 9 9 10 10 23 
23 23 23 23 23 11 24 24 24 
24 24 24 13 13 13 13 26 26 
26 26 26 15 15 15 15 15 15 
28 28 28 28 28 28 28 30 30 
30 30 30 18 18 18 18 18 0 
0 0 0 0 0 0 0 0 0 
0 0 0 0 0 0 0 0 0 
0 0 0 0 0 0 0 0 0 
0 0 0 0 0 0 0 0 0 
0 19 19 19 19 19 19 21 21 
21 21 21 22 22 22 22 22 22 
23 23 23 23 23 11 11 11 24 
24 24 24 24 13 13 13 13 26 
26 26 26 26 15 15 15 15 15 
15 28 28 28 28 28 28 29 29 
30 30 30 30 18 18 18 18 18 
18 0 0 0 0 0 0 0 0 
0 0 0 0 0 0 0 0 0 
0 0 0 0 0 0 0 0 0 
0 0 0 0 0 0 0 0 0 
0 32 32 19 19 19 19 19 21 
21 21 21 21 22 22 22 22 22 
22 22 23 23 23 11 11 11 11 
11 24 24 24 24 25 25 25 25 
26 26 26 26 26 27 27 27 27 
27 27 28 28 28 28 28 29 29 
29 29 30 30 30 18 18 18 18 
18 31 31 0 0 0 0 0 0 
0 0 0 0 0 0 0 0 0 
0 0 0 0 0 0 0 0 0 
0 0 0 0 0 0 0 0 0 
0 32 32 32 32 19 19 19 21 
21 21 21 21 21 22 22 22 22 
22 22 22 22 22 11 11 11 11 
11 11 11 24 25 25 25 25 25 
25 38 38 38 38 38 27 27 27 
27 27 27 28 28 28 28 29 29 
29 29 29 29 30 30 30 31 31 
31 31 31 31 31 0 0 0 0 
0 0 0 0 0 0 0 0 0 
0 0 0 0 0 0 0 0 0 
0 0 0 0 0 0 0 0 0 
0 45 32 32 32 32 32 19 19 
21 21 21 21 21 21 22 22 22 
22 22 22 22 22 36 36 11 11 
11 11 11 11 37 25 25 25 25 
25 25 38 38 38 38 38 27 27 
27 27 27 27 28 28 28 28 29 
29 29 29 29 29 43 43 43 43 
31 31 31 31 31 31 31 0 0 
0 0 0 0 0 0 0 0 0 
0 0 0 0 0 0 0 0 0 
0 0 0 0 0 0 0 0 0 
0 45 45 32 32 32 32 32 32 
20 20 20 20 20 20 20 35 35 
35 35 35 22 22 36 36 36 36 
11 11 11 11 37 37 37 25 25 
25 25 25 38 38 38 38 38 27 
27 27 27 27 41 41 41 41 28 
29 29 29 29 29 42 43 43 43 
43 43 31 31 31 31 31 44 44 
0 0 0 0 0 0 0 0 0 
0 0 0 0 0 0 0 0 0 
0 0 0 0 0 0 0 0 0 
0 45 45 45 45 32 32 32 32 
32 20 20 20 20 20 20 20 35 
35 35 35 35 35 36 36 36 36 
36 36 11 11 37 37 37 37 37 
25 25 25 25 38 38 38 38 38 
40 40 40 40 40 41 41 41 41 
41 42 42 42 42 42 42 43 43 
43 43 43 31 31 31 31 44 44 
44 44 0 0 0 0 0 0 0 
0 0 0 0 0 0 0 0 0 
0 0 0 0 0 0 0 0 0 
0 45 45 45 45 45 32 32 32 
32 32 20 20 20 20 20 20 20 
35 35 35 35 35 34 34 36 36 
36 36 36 36 11 37 37 37 37 
37 25 25 25 25 38 38 38 38 
38 40 40 40 40 40 41 41 41 
41 41 42 42 42 42 42 42 43 
43 43 43 43 31 31 31 44 44 
44 44 44 44 0 0 0 0 0 
0 0 0 0 0 0 0 0 0 
0 0 0 0 0 0 0 0 0 
0 0 45 45 45 45 45 45 32 
47 47 47 33 33 33 20 20 20 
20 35 35 35 35 34 34 34 34 
36 36 36 36 36 39 37 37 37 
37 37 25 25 25 25 38 38 38 
38 40 40 40 40 40 40 41 41 
41 41 41 42 42 42 42 42 42 
43 43 43 43 57 57 57 44 44 
44 44 44 44 44 0 0 0 0 
0 0 0 0 0 0 0 0 0 
0 0 0 0 0 0 0 0 0 
0 0 0 45 45 45 45 45 45 
47 47 47 47 33 33 33 33 20 
20 20 35 35 35 34 34 34 34 
34 34 36 36 36 39 39 39 37 
37 37 37 52 52 52 52 53 53 
53 53 40 40 40 40 40 40 41 
41 41 41 41 42 42 42 42 42 
42 43 43 43 57 57 57 57 44 
44 44 44 44 44 44 0 0 0 
0 0 0 0 0 0 0 0 0 
0 0 0 0 0 0 0 0 0 
0 0 0 0 46 46 46 46 46 
46 47 47 47 47 33 33 33 33 
33 20 20 49 49 49 34 34 34 
34 34 34 34 34 39 39 39 39 
39 39 39 39 52 52 52 52 53 
53 53 53 53 40 40 40 40 40 
41 41 41 41 41 42 42 42 42 
42 42 57 57 57 57 57 57 57 
59 59 59 59 59 59 59 0 0 
0 0 0 0 0 0 0 0 0 
0 0 0 0 0 0 0 0 0 
0 0 0 0 0 46 46 46 46 
46 46 47 47 47 47 33 33 33 
33 33 20 49 49 49 49 49 34 
34 34 34 34 50 50 50 39 39 
39 39 39 39 39 52 52 52 52 
53 53 53 53 53 54 54 54 54 
54 55 55 55 55 55 55 56 56 
56 56 56 57 57 57 57 57 57 
57 59 59 59 59 59 59 59 0 
0 0 0 0 0 0 0 0 0 
0 0 0 0 0 0 0 0 0 