# vtk DataFile Version 5.1
vtk output
ASCII
DATASET STRUCTURED_POINTS
DIMENSIONS 100 100 1
SPACING 1 1 1
ORIGIN 0 0 0
POINT_DATA 10000
FIELD FieldData 3
CellType 1 10000 char
0 0 0 0 0 0 0 0 0 
0 0 0 0 0 0 0 0 0 
0 0 0 0 0 0 0 0 0 
0 0 0 0 0 0 0 0 0 
0 0 0 0 0 0 0 0 0 
0 0 0 0 0 0 0 0 0 
0 0 0 0 0 0 0 0 0 
0 0 0 0 0 0 0 0 0 
0 0 0 0 0 0 0 0 0 
0 0 0 0 0 0 0 0 0 
0 0 0 0 0 0 0 0 0 
0 0 0 0 0 0 0 0 0 
0 0 0 0 0 0 0 0 0 
0 0 0 0 0 0 0 0 0 
0 0 0 0 0 0 0 0 0 
0 0 0 0 0 0 0 0 0 
0 0 0 0 0 0 0 0 0 
0 0 0 0 0 0 0 0 0 
0 0 0 0 0 0 0 0 0 
0 0 0 0 0 0 0 0 0 
0 0 0 0 0 0 0 0 0 
0 0 0 0 0 0 0 0 0 
0 0 0 0 0 0 0 0 0 
0 0 0 0 0 0 0 0 0 
0 0 0 0 0 0 0 0 0 
0 0 0 0 0 0 0 0 0 
0 0 0 0 0 0 0 0 0 
0 0 0 0 0 0 0 0 0 
0 0 0 0 0 0 0 0 0 
0 0 0 0 0 0 0 0 0 
0 0 0 0 0 0 0 0 0 
0 0 0 0 0 0 0 0 0 
0 0 0 0 0 0 0 0 0 
0 0 0 0 0 0 0 0 0 
0 0 0 0 0 0 0 0 0 
0 0 0 0 0 0 0 0 0 
0 0 0 0 0 0 0 0 0 
0 0 0 0 0 0 0 0 0 
0 0 0 0 0 0 0 0 0 
0 0 0 0 0 0 0 0 0 
0 0 0 0 0 0 0 0 0 
0 0 0 0 0 0 0 0 0 
0 0 0 0 0 0 0 0 0 
0 0 0 0 0 0 0 0 0 
0 0 0 0 0 0 0 0 0 
0 0 0 0 0 0 0 0 0 
0 0 0 0 0 0 0 0 0 
0 0 0 0 0 0 0 0 0 
0 0 0 0 0 0 0 0 0 
0 0 0 0 0 0 0 0 0 
0 0 0 0 0 0 0 0 0 
0 0 0 0 0 0 0 0 0 
0 0 0 0 0 0 0 0 0 
0 0 0 0 0 0 0 0 0 
0 0 0 0 0 0 0 0 0 
0 0 0 0 0 0 0 0 0 
0 0 0 0 0 0 0 0 0 
0 0 0 0 0 0 0 0 0 
0 0 0 0 0 0 0 0 0 
0 0 0 0 0 0 0 0 0 
0 0 0 0 0 0 0 0 0 
0 0 0 0 0 0 0 0 0 
0 0 0 0 0 0 0 0 0 
0 0 0 0 0 0 0 0 0 
0 0 0 0 0 0 0 0 0 
0 0 0 0 0 0 0 0 0 
0 0 0 0 0 0 0 0 0 
0 0 0 0 0 0 0 0 0 
0 0 0 0 0 0 0 0 0 
0 0 0 0 0 0 0 0 0 
0 0 0 0 0 0 0 0 0 
0 0 0 0 0 0 0 0 0 
0 0 0 0 0 0 0 0 0 
0 0 0 0 0 0 0 0 0 
0 0 0 0 0 0 0 0 0 
0 0 0 0 0 0 0 0 0 
0 0 0 0 0 0 0 0 0 
0 0 0 0 0 0 0 0 0 
0 0 0 0 0 0 0 0 0 
0 0 0 0 0 0 0 0 0 
0 0 0 0 0 0 0 0 0 
0 0 0 0 0 0 0 0 0 
0 0 0 0 0 0 0 0 0 
0 0 0 0 0 0 0 0 0 
0 0 0 0 0 0 0 0 0 
0 0 0 0 0 0 0 0 0 
0 0 0 0 0 0 0 0 0 
0 0 0 0 0 0 0 0 0 
0 0 0 0 0 0 0 0 0 
0 0 0 0 0 0 0 0 0 
0 0 0 0 0 0 0 0 0 
0 0 0 0 0 0 0 0 0 
0 0 0 0 0 0 0 0 0 
0 0 0 0 0 0 0 0 0 
0 0 0 0 0 0 0 0 0 
0 0 0 0 0 0 0 0 0 
0 0 0 0 0 0 0 0 0 
0 0 0 0 0 0 0 0 0 
0 0 0 0 0 0 0 0 0 
0 0 0 0 0 0 0 0 0 
0 0 0 0 0 0 0 0 0 
0 0 0 0 0 0 0 0 0 
0 0 0 0 0 0 0 0 0 
0 0 0 0 0 0 0 0 0 
0 0 0 0 0 0 0 0 0 
0 0 0 0 0 0 0 0 0 
0 0 0 0 0 0 0 0 0 
0 0 0 0 0 0 0 0 0 
0 0 0 0 0 0 0 0 0 
0 0 0 0 0 0 0 0 0 
0 0 0 0 0 0 0 0 0 
0 0 0 0 0 0 0 0 0 
0 0 0 0 0 0 0 0 0 
0 0 0 0 0 0 0 0 0 
0 0 0 0 0 0 0 0 0 
0 0 0 0 0 0 0 0 0 
0 0 0 0 0 0 0 0 0 
0 0 0 0 0 0 0 0 0 
0 0 0 0 0 0 0 0 0 
0 0 0 0 0 0 0 0 0 
0 0 0 0 0 0 0 0 0 
0 0 0 0 0 0 0 0 0 
0 0 0 0 0 0 0 0 0 
0 0 0 0 0 0 0 0 0 
0 0 0 0 0 0 0 0 0 
0 0 0 0 0 0 0 0 0 
0 0 0 0 0 0 0 0 0 
0 0 0 0 0 0 0 0 0 
0 0 0 0 0 0 0 0 0 
0 0 0 0 0 0 0 0 0 
0 0 0 0 0 0 0 0 0 
0 0 0 0 0 0 0 0 0 
0 0 0 0 0 0 0 0 0 
0 0 0 0 0 0 0 0 0 
0 0 0 0 0 0 0 0 0 
0 0 0 0 0 0 0 0 0 
0 0 0 0 0 0 0 0 0 
0 0 0 0 0 0 0 0 0 
0 0 0 0 0 0 0 0 0 
0 0 0 0 0 0 0 0 0 
0 0 0 0 0 0 0 0 0 
0 0 0 0 0 0 0 0 0 
0 0 0 0 0 0 0 0 0 
0 0 0 0 0 0 0 0 0 
0 0 0 0 0 0 0 0 0 
0 0 0 0 0 0 0 0 0 
0 0 0 0 0 0 0 0 0 
0 0 0 0 0 0 0 0 0 
0 0 0 0 0 0 0 0 0 
0 0 0 0 0 0 0 0 0 
0 0 0 0 0 0 0 0 0 
0 0 0 0 0 0 0 0 0 
0 0 0 0 0 0 0 0 0 
0 0 0 0 0 0 0 0 0 
0 0 0 0 0 0 0 0 0 
0 0 0 0 0 0 0 0 0 
0 0 0 0 0 0 0 0 0 
0 0 0 0 0 0 0 0 0 
0 0 0 0 0 0 0 0 0 
0 0 0 0 0 0 0 0 0 
0 0 0 0 0 0 0 0 0 
0 0 0 0 0 0 0 0 0 
0 0 0 0 0 0 0 0 0 
0 0 0 0 0 0 0 0 0 
0 0 0 0 0 0 0 0 0 
0 0 0 0 0 0 0 0 0 
0 0 0 0 0 0 0 0 0 
0 0 0 0 0 0 0 0 0 
0 0 0 0 0 0 0 0 0 
0 0 0 0 0 0 0 0 0 
0 2 2 2 2 2 2 2 2 
2 2 2 2 1 2 2 2 2 
2 1 1 1 2 2 2 2 2 
1 1 1 1 2 2 2 2 2 
1 1 1 1 2 2 0 0 0 
0 0 0 0 0 0 0 0 0 
0 0 0 0 0 0 0 0 0 
0 0 0 0 0 0 0 0 0 
0 0 0 0 0 0 0 0 0 
0 0 0 0 0 0 0 0 0 
0 0 0 0 0 0 0 0 0 
0 2 2 2 2 2 2 1 1 
2 2 2 2 2 1 2 2 2 
2 2 1 1 1 2 2 2 2 
2 1 1 1 1 2 2 2 2 
2 1 1 1 1 2 2 2 0 
0 0 0 0 0 0 0 0 0 
0 0 0 0 0 0 0 0 0 
0 0 0 0 0 0 0 0 0 
0 0 0 0 0 0 0 0 0 
0 0 0 0 0 0 0 0 0 
0 0 0 0 0 0 0 0 0 
0 2 2 2 2 2 2 1 1 
1 2 2 2 2 2 1 2 2 
2 2 2 1 1 1 2 2 2 
2 2 1 1 1 1 2 2 2 
2 2 1 1 1 1 2 2 2 
2 0 0 0 0 0 0 0 0 
0 0 0 0 0 0 0 0 0 
0 0 0 0 0 0 0 0 0 
0 0 0 0 0 0 0 0 0 
0 0 0 0 0 0 0 0 0 
0 0 0 0 0 0 0 0 0 
0 2 1 1 1 1 1 1 1 
1 1 2 2 2 2 1 1 2 
2 2 2 1 1 1 1 2 2 
2 2 2 1 1 1 1 1 2 
2 2 2 1 1 1 1 2 2 
2 2 2 0 0 0 0 0 0 
0 0 0 0 0 0 0 0 0 
0 0 0 0 0 0 0 0 0 
0 0 0 0 0 0 0 0 0 
0 0 0 0 0 0 0 0 0 
0 0 0 0 0 0 0 0 0 
0 2 2 2 1 1 1 1 1 
1 1 1 1 2 2 1 1 1 
2 2 2 2 1 1 1 1 2 
2 2 2 1 1 1 1 1 1 
2 2 2 2 1 1 1 1 2 
2 2 2 2 2 0 0 0 0 
0 0 0 0 0 0 0 0 0 
0 0 0 0 0 0 0 0 0 
0 0 0 0 0 0 0 0 0 
0 0 0 0 0 0 0 0 0 
0 0 0 0 0 0 0 0 0 
0 2 2 2 2 2 1 1 1 
1 1 1 1 1 1 1 1 1 
1 1 1 2 1 1 1 1 1 
2 2 2 2 1 1 1 1 1 
1 2 2 2 2 1 1 1 1 
2 2 2 2 2 2 2 2 2 
0 0 0 0 0 0 0 0 0 
0 0 0 0 0 0 0 0 0 
0 0 0 0 0 0 0 0 0 
0 0 0 0 0 0 0 0 0 
0 0 0 0 0 0 0 0 0 
0 1 2 2 2 2 2 2 2 
2 2 2 2 2 2 1 1 1 
1 1 1 1 1 1 1 1 1 
1 1 1 1 1 1 2 2 2 
2 1 1 1 1 1 1 1 1 
1 1 2 2 2 2 1 2 2 
2 2 0 0 0 0 0 0 0 
0 0 0 0 0 0 0 0 0 
0 0 0 0 0 0 0 0 0 
0 0 0 0 0 0 0 0 0 
0 0 0 0 0 0 0 0 0 
0 2 1 1 2 2 2 2 1 
1 2 2 2 2 2 2 1 1 
1 1 1 1 2 2 2 2 2 
2 2 1 1 1 1 1 2 2 
2 2 1 1 1 1 1 2 2 
2 2 2 1 1 1 1 1 2 
2 2 2 2 0 0 0 0 0 
0 0 0 0 0 0 0 0 0 
0 0 0 0 0 0 0 0 0 
0 0 0 0 0 0 0 0 0 
0 0 0 0 0 0 0 0 0 
0 2 2 1 1 1 2 2 2 
1 1 2 2 2 2 2 2 1 
2 2 2 2 1 2 2 2 2 
2 2 2 1 1 1 1 1 2 
2 2 2 1 1 1 1 1 2 
2 2 2 2 1 1 1 1 1 
2 2 2 2 2 2 0 0 0 
0 0 0 0 0 0 0 0 0 
0 0 0 0 0 0 0 0 0 
0 0 0 0 0 0 0 0 0 
0 0 0 0 0 0 0 0 0 
0 2 2 2 1 1 1 1 1 
1 1 1 1 2 2 2 2 1 
1 2 2 2 2 1 1 2 2 
2 2 2 2 1 1 1 1 1 
2 2 2 2 1 1 1 1 1 
2 2 2 2 2 1 1 1 2 
2 2 2 2 2 2 2 2 0 
0 0 0 0 0 0 0 0 0 
0 0 0 0 0 0 0 0 0 
0 0 0 0 0 0 0 0 0 
0 0 0 0 0 0 0 0 0 
0 2 2 2 2 1 1 1 1 
1 1 1 1 1 1 2 1 1 
1 1 2 2 2 2 1 1 1 
2 2 2 2 1 1 1 1 1 
1 2 2 2 2 1 1 1 1 
1 2 2 2 2 2 1 1 1 
2 2 2 2 1 1 1 2 2 
2 0 0 0 0 0 0 0 0 
0 0 0 0 0 0 0 0 0 
0 0 0 0 0 0 0 0 0 
0 0 0 0 0 0 0 0 0 
0 2 2 2 2 2 1 1 1 
1 1 1 1 1 1 1 1 1 
1 1 1 2 2 2 2 1 1 
1 1 2 2 2 1 1 2 2 
2 1 2 2 2 2 1 1 1 
1 1 1 2 2 2 2 1 1 
1 2 2 2 2 1 1 1 2 
2 2 2 0 0 0 0 0 0 
0 0 0 0 0 0 0 0 0 
0 0 0 0 0 0 0 0 0 
0 0 0 0 0 0 0 0 0 
0 1 1 2 2 2 2 1 1 
1 1 2 2 1 1 1 1 1 
1 1 1 1 2 2 2 2 1 
1 1 1 1 2 2 1 2 2 
2 2 2 1 1 1 1 2 2 
2 2 2 2 1 1 1 1 1 
1 1 2 2 2 2 1 1 1 
2 2 2 2 2 0 0 0 0 
0 0 0 0 0 0 0 0 0 
0 0 0 0 0 0 0 0 0 
0 0 0 0 0 0 0 0 0 
0 2 2 1 1 1 1 1 1 
2 2 2 2 2 2 1 1 1 
1 1 1 1 1 2 2 2 2 
1 1 1 1 1 1 1 1 2 
2 2 2 2 1 1 1 1 2 
2 2 2 2 2 1 1 1 2 
2 2 2 2 2 2 2 1 1 
1 2 2 2 2 2 2 0 0 
0 0 0 0 0 0 0 0 0 
0 0 0 0 0 0 0 0 0 
0 0 0 0 0 0 0 0 0 
0 2 2 2 2 1 1 1 1 
1 2 2 2 2 2 2 1 1 
2 2 1 1 1 1 2 2 2 
2 1 1 1 1 1 1 1 1 
2 2 2 2 2 1 1 1 1 
2 2 2 2 2 2 1 1 1 
2 2 2 2 2 1 1 1 1 
1 1 2 2 2 2 1 1 1 
0 0 0 0 0 0 0 0 0 
0 0 0 0 0 0 0 0 0 
0 0 0 0 0 0 0 0 0 
0 2 2 2 2 2 1 1 1 
1 1 2 2 2 2 2 2 1 
2 2 2 2 2 2 1 1 1 
1 1 1 2 2 2 2 2 1 
1 1 2 2 2 2 1 1 1 
1 1 2 2 2 2 2 2 2 
2 2 2 2 2 2 1 1 1 
1 1 1 1 1 1 1 1 1 
2 2 0 0 0 0 0 0 0 
0 0 0 0 0 0 0 0 0 
0 0 0 0 0 0 0 0 0 
0 2 2 2 2 2 2 1 1 
1 1 1 2 2 2 2 2 2 
1 2 2 2 2 2 2 1 1 
1 1 1 1 2 2 2 2 2 
1 1 1 1 1 1 2 2 2 
1 1 1 1 1 1 1 2 2 
2 2 1 2 2 2 2 1 1 
1 2 2 2 1 1 1 1 1 
2 2 2 2 0 0 0 0 0 
0 0 0 0 0 0 0 0 0 
0 0 0 0 0 0 0 0 0 
0 0 2 2 2 2 2 2 1 
1 1 1 1 1 1 1 1 1 
1 1 2 2 2 2 2 2 1 
1 1 1 1 1 2 2 2 2 
2 1 1 1 1 1 2 2 2 
2 2 1 1 1 1 1 1 2 
2 2 2 1 1 2 2 2 1 
1 1 2 2 2 2 1 1 1 
1 2 2 2 2 0 0 0 0 
0 0 0 0 0 0 0 0 0 
0 0 0 0 0 0 0 0 0 
0 0 0 2 1 1 1 1 1 
1 2 2 2 2 1 1 1 1 
1 1 1 2 2 2 2 2 2 
1 1 1 1 1 1 2 2 2 
2 2 1 1 1 1 1 2 2 
2 2 2 1 2 2 2 2 2 
2 2 2 2 1 1 1 1 1 
1 1 1 2 2 2 2 2 1 
1 1 2 2 2 2 0 0 0 
0 0 0 0 0 0 0 0 0 
0 0 0 0 0 0 0 0 0 
0 0 0 0 2 2 2 1 1 
1 1 2 2 2 2 1 1 1 
1 1 1 1 1 1 1 1 1 
1 1 1 1 1 1 1 2 2 
2 2 2 1 1 1 1 1 2 
2 2 2 2 1 2 2 2 2 
2 1 1 1 1 1 1 1 1 
2 2 2 1 2 2 2 2 2 
2 1 1 2 2 2 2 0 0 
0 0 0 0 0 0 0 0 0 
0 0 0 0 0 0 0 0 0 
0 0 0 0 0 2 2 2 1 
1 1 1 2 2 2 2 2 1 
1 1 1 1 2 1 1 1 1 
1 1 2 2 2 2 2 1 1 
1 1 1 1 1 1 1 1 1 
2 2 2 2 1 1 2 2 2 
2 2 1 1 1 1 1 1 1 
2 2 2 2 2 2 2 2 2 
2 2 2 1 2 2 2 2 0 
0 0 0 0 0 0 0 0 0 
0 0 0 0 0 0 0 0 0 
0 0 0 0 0 0 2 2 2 
1 1 1 1 2 2 2 2 2 
1 2 2 2 2 2 2 1 1 
1 1 1 2 2 2 2 2 2 
1 1 1 1 1 2 2 2 2 
2 1 1 1 1 1 1 2 2 
2 2 2 1 1 1 1 1 1 
1 2 2 2 2 2 1 1 1 
1 1 1 1 1 2 2 2 2 
0 0 0 0 0 0 0 0 0 
0 0 0 0 0 0 0 0 0 
0 0 0 0 0 0 0 2 2 
2 1 1 1 1 2 2 2 2 
1 1 2 2 2 2 2 2 1 
1 1 1 1 2 2 2 2 2 
2 1 1 1 1 1 2 2 2 
2 2 1 1 1 1 1 1 1 
2 2 2 2 2 2 2 2 2 
1 1 2 2 2 2 2 1 1 
1 1 1 1 1 1 1 1 1 
1 0 0 0 0 0 0 0 0 
0 0 0 0 0 0 0 0 0 
0 0 0 0 0 0 0 0 2 
1 1 1 1 1 1 2 2 2 
1 1 1 2 2 2 2 2 2 
2 1 1 1 1 2 2 2 2 
2 2 1 1 1 1 1 2 2 
2 2 2 1 1 1 1 1 1 
1 1 1 1 1 1 2 2 2 
2 1 1 1 2 2 2 2 1 
1 1 1 1 1 1 1 1 2 
2 2 0 0 0 0 0 0 0 
0 0 0 0 0 0 0 0 0 
0 0 0 0 0 0 0 0 0 
2 2 2 2 2 2 1 1 1 
2 1 1 1 2 2 2 2 2 
2 2 1 1 1 1 1 1 2 
2 2 2 1 1 1 1 1 2 
2 2 2 2 1 1 1 1 1 
2 2 2 2 1 1 1 2 2 
2 2 1 1 1 2 2 1 1 
1 2 2 2 1 1 1 2 2 
2 2 2 0 0 0 0 0 0 
0 0 0 0 0 0 0 0 0 
0 0 0 0 0 0 0 0 0 
0 2 2 2 2 2 2 1 1 
1 1 1 1 1 1 1 1 1 
1 1 1 1 2 2 2 1 1 
1 1 1 1 1 1 1 1 1 
2 2 2 2 2 1 1 1 1 
2 2 2 2 2 1 1 1 2 
2 2 1 1 1 1 2 1 1 
1 1 2 2 2 1 1 1 2 
2 2 2 2 0 0 0 0 0 
0 0 0 0 0 0 0 0 0 
0 0 0 0 0 0 0 0 0 
0 0 2 2 2 2 2 2 1 
1 1 1 1 1 1 1 1 1 
1 1 1 1 1 2 2 2 2 
1 1 1 1 1 2 2 2 2 
1 1 1 1 1 1 2 2 2 
1 2 2 2 2 2 1 1 1 
2 2 2 1 1 1 1 1 1 
1 1 1 2 2 2 1 1 1 
2 2 2 2 2 0 0 0 0 
0 0 0 0 0 0 0 0 0 
0 0 0 0 0 0 0 0 0 
0 0 0 2 2 2 2 2 1 
1 1 1 1 1 1 1 1 1 
1 1 1 1 1 1 2 2 2 
2 1 1 1 1 1 2 2 2 
2 1 1 1 1 1 2 2 2 
2 1 2 2 2 2 2 1 1 
1 1 2 1 1 1 1 1 1 
1 1 1 2 2 2 2 1 1 
1 2 2 2 2 2 0 0 0 
0 0 0 0 0 0 0 0 0 
0 0 0 0 0 0 0 0 0 
0 0 0 0 2 2 2 2 1 
1 1 1 1 1 1 1 1 2 
2 2 2 2 2 1 1 2 2 
2 2 1 1 1 1 1 2 2 
2 2 1 1 1 1 1 2 2 
2 2 1 1 1 2 2 2 1 
1 1 1 1 1 1 1 1 1 
1 1 1 1 2 2 2 1 1 
1 1 2 2 2 2 2 0 0 
0 0 0 0 0 0 0 0 0 
0 0 0 0 0 0 0 0 0 
0 0 0 0 0 1 1 1 1 
1 1 1 1 2 2 2 2 1 
2 2 2 2 2 2 2 1 2 
2 2 2 2 1 1 1 2 2 
2 2 2 1 1 1 1 1 2 
2 2 2 1 1 1 1 1 1 
1 1 1 1 1 2 2 2 2 
2 1 1 1 1 2 2 2 1 
1 1 1 1 1 1 1 1 0 
0 0 0 0 0 0 0 0 0 
0 0 0 0 0 0 0 0 0 
0 0 0 0 0 0 2 2 2 
2 2 1 1 2 2 2 2 2 
1 1 1 2 2 2 2 2 1 
2 2 2 2 2 1 1 1 2 
2 2 2 2 1 1 1 1 1 
2 2 2 2 1 1 1 1 1 
1 2 2 2 1 1 2 2 2 
2 2 2 1 1 2 2 2 2 
1 1 1 1 1 1 1 1 1 
0 0 0 0 0 0 0 0 0 
0 0 0 0 0 0 0 0 0 
0 0 0 0 0 0 0 2 2 
2 2 2 2 2 2 2 2 2 
2 1 1 1 1 2 2 2 2 
1 1 2 2 2 1 1 1 1 
2 2 2 2 2 1 1 1 1 
1 2 2 2 2 1 1 1 1 
1 1 2 2 2 2 1 2 2 
2 2 2 2 1 1 1 1 1 
1 1 1 1 1 1 1 1 1 
1 0 0 0 0 0 0 0 0 
0 0 0 0 0 0 0 0 0 
0 0 0 0 0 0 0 0 2 
2 2 2 2 1 1 2 2 2 
2 2 1 1 1 1 1 2 2 
1 1 1 1 1 1 1 1 1 
1 1 1 1 1 1 1 2 2 
2 2 1 1 1 1 2 2 2 
2 1 1 2 2 2 2 1 2 
2 2 2 2 1 1 1 1 1 
1 2 2 2 2 2 2 1 1 
1 1 0 0 0 0 0 0 0 
0 0 0 0 0 0 0 0 0 
0 0 0 0 0 0 0 0 0 
2 2 2 2 1 1 1 1 2 
2 2 2 1 1 1 1 1 1 
1 1 1 1 1 1 1 1 1 
1 1 1 1 1 1 1 1 2 
2 2 2 1 1 1 1 2 2 
2 2 2 1 2 2 2 2 2 
2 2 2 2 1 1 1 1 1 
1 1 2 2 2 2 2 2 1 
1 1 1 0 0 0 0 0 0 
0 0 0 0 0 0 0 0 0 
0 0 0 0 0 0 0 0 0 
0 2 2 2 1 1 1 1 1 
1 2 2 2 1 1 1 1 2 
2 1 1 1 1 1 1 1 1 
1 1 1 1 1 1 1 1 1 
2 2 2 2 1 1 1 1 2 
2 2 2 2 1 2 2 2 2 
2 1 1 1 1 1 1 1 1 
1 1 1 2 2 2 2 2 2 
1 1 1 1 0 0 0 0 0 
0 0 0 0 0 0 0 0 0 
0 0 0 0 0 0 0 0 0 
0 0 1 1 1 1 1 1 1 
1 1 1 1 1 1 2 2 2 
2 2 2 1 1 1 1 2 2 
1 1 1 1 1 1 1 1 1 
1 2 2 2 2 1 1 1 1 
2 2 2 2 1 1 1 2 2 
2 1 1 1 1 1 2 2 2 
2 2 1 1 2 2 2 2 2 
1 1 1 1 1 0 0 0 0 
0 0 0 0 0 0 0 0 0 
0 0 0 0 0 0 0 0 0 
0 0 0 2 2 2 2 1 1 
1 1 1 1 1 1 1 2 2 
2 2 2 2 1 1 1 2 2 
2 2 1 1 1 1 1 1 1 
1 1 2 2 2 2 1 1 1 
1 2 2 2 1 1 1 1 1 
1 1 1 1 1 1 1 2 2 
2 2 2 2 1 1 2 2 2 
1 1 1 1 1 1 0 0 0 
0 0 0 0 0 0 0 0 0 
0 0 0 0 0 0 0 0 0 
0 0 0 0 2 2 2 2 2 
1 1 1 1 1 1 1 1 1 
2 2 2 2 2 2 1 2 2 
2 2 2 1 1 1 1 2 2 
2 1 1 1 2 2 2 1 1 
1 1 1 1 1 1 1 1 1 
1 2 2 1 1 1 1 1 2 
2 2 2 2 2 1 1 1 1 
1 1 1 1 1 1 1 0 0 
0 0 0 0 0 0 0 0 0 
0 0 0 0 0 0 0 0 0 
0 0 0 0 0 2 2 2 2 
2 1 2 2 2 1 1 1 1 
1 1 2 2 2 2 2 1 2 
2 2 2 2 1 1 1 1 2 
2 2 2 2 1 2 2 2 1 
1 2 2 2 2 1 1 1 1 
1 2 2 2 1 1 1 1 1 
2 2 2 2 2 2 1 1 1 
1 1 1 1 1 1 1 1 0 
0 0 0 0 0 0 0 0 0 
0 0 0 0 0 0 0 0 0 
0 0 0 0 0 0 2 2 2 
2 1 1 2 2 2 2 1 1 
1 1 1 1 1 1 1 1 1 
2 2 2 2 2 1 1 1 1 
2 2 2 2 2 2 1 1 1 
1 2 2 2 2 2 2 1 1 
2 2 2 2 2 1 1 1 2 
2 1 1 2 2 2 2 1 1 
1 1 1 2 2 2 2 2 2 
0 0 0 0 0 0 0 0 0 
0 0 0 0 0 0 0 0 0 
0 0 0 0 0 0 0 2 2 
2 1 1 1 2 2 2 2 2 
1 1 2 2 2 2 1 1 1 
1 2 2 2 2 2 1 1 1 
1 2 2 2 2 2 2 1 1 
1 1 1 2 2 2 2 2 1 
1 2 2 2 2 2 1 1 2 
2 2 1 1 1 1 1 1 1 
1 1 1 1 2 2 2 2 2 
2 0 0 0 0 0 0 0 0 
0 0 0 0 0 0 0 0 0 
0 0 0 0 0 0 0 0 2 
2 1 1 1 1 2 2 2 2 
2 1 2 2 2 2 2 1 1 
1 1 2 2 1 1 1 1 1 
1 1 2 2 2 2 2 2 1 
1 1 1 1 2 2 2 2 2 
2 2 2 2 2 2 2 1 1 
2 2 2 2 1 1 1 1 1 
1 1 1 1 1 2 2 2 2 
2 2 0 0 0 0 0 0 0 
0 0 0 0 0 0 0 0 0 
0 0 0 0 0 0 0 0 0 
1 1 1 1 1 1 2 2 2 
2 1 1 1 2 2 2 2 1 
1 1 1 1 1 1 1 1 2 
2 1 1 1 1 1 1 1 1 
1 1 1 1 1 1 2 2 2 
2 1 1 1 1 1 1 2 1 
1 2 2 2 2 1 1 1 1 
1 2 2 2 1 1 2 2 2 
2 2 2 0 0 0 0 0 0 
0 0 0 0 0 0 0 0 0 
0 0 0 0 0 0 0 0 0 
0 1 1 1 1 1 1 2 2 
2 1 1 1 1 2 2 2 2 
1 1 1 1 1 1 1 1 1 
2 2 2 2 1 1 1 1 1 
2 2 2 2 1 1 1 1 1 
1 1 1 1 1 1 1 2 2 
2 2 2 2 2 2 1 1 1 
1 1 2 2 2 2 2 1 1 
1 2 2 2 0 0 0 0 0 
0 0 0 0 0 0 0 0 0 
0 0 0 0 0 0 0 0 0 
0 0 2 2 2 1 1 1 2 
2 2 1 1 1 1 2 2 2 
2 1 1 1 1 1 1 1 1 
2 2 2 2 2 1 1 1 1 
1 2 2 2 2 1 1 1 2 
2 2 1 1 1 1 1 1 2 
2 2 2 1 2 2 2 1 1 
1 1 1 2 2 2 2 2 1 
1 1 1 1 1 0 0 0 0 
0 0 0 0 0 0 0 0 0 
0 0 0 0 0 0 0 0 0 
0 0 0 2 2 2 2 2 1 
1 1 1 1 1 1 1 1 2 
2 2 1 1 1 1 1 1 1 
1 2 2 2 2 2 1 1 1 
1 1 2 2 2 2 2 1 2 
2 2 2 1 1 1 1 1 1 
2 2 2 2 1 1 1 1 2 
2 2 1 1 2 2 2 2 2 
1 1 1 1 1 1 0 0 0 
0 0 0 0 0 0 0 0 0 
0 0 0 0 0 0 0 0 0 
0 0 0 0 2 2 2 2 2 
1 1 1 1 1 1 1 1 1 
1 1 1 1 2 2 2 2 1 
1 1 2 2 2 2 2 1 1 
1 1 1 2 2 2 2 2 1 
2 2 2 2 1 1 1 1 1 
1 2 2 2 2 1 1 1 1 
2 2 2 2 1 2 2 2 2 
2 1 1 1 1 1 1 0 0 
0 0 0 0 0 0 0 0 0 
0 0 0 0 0 0 0 0 0 
0 0 0 0 0 2 2 2 2 
2 1 1 1 1 2 2 2 2 
2 1 1 1 1 2 2 2 2 
2 1 1 2 2 2 2 2 1 
1 1 1 1 2 2 2 2 1 
1 2 2 2 2 1 1 2 2 
2 2 2 2 2 2 1 1 1 
1 2 2 2 2 2 2 2 2 
2 2 1 1 1 1 1 1 0 
0 0 0 0 0 0 0 0 0 
0 0 0 0 0 0 0 0 0 
0 0 0 0 0 0 2 2 2 
2 2 1 1 1 1 2 2 2 
2 2 1 1 1 1 2 2 2 
2 2 1 1 1 1 1 1 1 
1 2 2 2 2 1 1 1 1 
1 1 2 2 2 2 1 2 2 
2 2 2 1 1 1 1 1 1 
1 1 2 2 2 2 2 1 1 
1 1 1 1 2 2 2 2 2 
0 0 0 0 0 0 0 0 0 
0 0 0 0 0 0 0 0 0 
0 0 0 0 0 0 0 2 2 
2 2 2 1 1 1 1 2 2 
2 2 2 1 1 1 1 2 2 
2 2 2 1 1 1 1 1 1 
1 2 2 2 2 2 2 1 1 
1 1 1 1 2 2 2 2 2 
2 2 2 2 1 1 1 1 1 
2 2 2 2 2 2 2 2 1 
1 1 1 1 1 2 2 2 2 
2 0 0 0 0 0 0 0 0 
0 0 0 0 0 0 0 0 0 
0 0 0 0 0 0 0 0 1 
1 1 1 1 1 1 1 1 1 
2 2 2 2 1 1 1 1 2 
2 2 2 2 1 1 1 1 1 
1 1 2 2 2 2 2 2 1 
1 1 1 1 1 1 2 1 1 
2 2 2 2 2 1 1 1 1 
2 2 2 2 1 1 1 1 2 
2 2 2 1 1 1 2 2 2 
2 2 0 0 0 0 0 0 0 
0 0 0 0 0 0 0 0 0 
0 0 0 0 0 0 0 0 0 
1 1 1 1 1 2 2 2 2 
1 2 2 2 2 1 1 1 1 
1 2 2 2 2 1 1 1 1 
1 1 1 2 2 2 2 2 2 
1 1 2 2 2 2 2 2 1 
1 1 1 1 1 2 2 2 1 
2 2 2 2 2 1 1 1 1 
2 2 2 2 2 1 1 2 2 
2 2 2 0 0 0 0 0 0 
0 0 0 0 0 0 0 0 0 
0 0 0 0 0 0 0 0 0 
0 1 1 1 1 2 2 2 2 
2 1 1 1 1 1 1 1 1 
1 1 1 1 1 1 1 2 2 
2 2 2 1 1 1 1 2 2 
2 1 2 2 2 2 2 2 2 
1 1 1 1 1 2 2 2 2 
2 2 2 2 2 2 1 1 1 
1 2 2 2 2 2 1 1 1 
2 2 2 2 0 0 0 0 0 
0 0 0 0 0 0 0 0 0 
0 0 0 0 0 0 0 0 0 
0 0 1 1 1 1 2 2 2 
2 2 1 1 1 1 1 2 2 
2 2 2 1 1 1 1 1 2 
2 2 2 2 1 1 1 1 1 
1 2 1 2 2 2 2 2 2 
2 1 1 1 1 1 2 2 2 
2 2 1 2 2 2 2 1 1 
1 1 2 2 2 2 2 1 1 
1 1 1 2 2 0 0 0 0 
0 0 0 0 0 0 0 0 0 
0 0 0 0 0 0 0 0 0 
0 0 0 1 1 1 1 2 2 
2 2 2 1 1 1 1 2 2 
2 2 2 2 1 1 1 1 1 
2 2 2 2 2 1 1 1 1 
1 1 1 1 1 2 2 2 2 
2 1 1 1 1 1 1 2 2 
2 2 2 1 1 1 1 1 1 
1 1 1 2 2 2 2 2 1 
1 1 1 1 1 0 0 0 0 
0 0 0 0 0 0 0 0 0 
0 0 0 0 0 0 0 0 0 
0 0 0 0 1 1 1 1 2 
2 2 2 2 1 1 1 1 2 
2 2 2 2 2 1 1 1 1 
1 2 2 2 2 2 1 1 1 
1 1 1 1 1 1 1 1 1 
1 2 2 2 1 1 1 1 2 
2 2 2 2 1 1 1 1 1 
2 2 2 2 2 1 1 1 1 
1 2 2 2 2 2 0 0 0 
0 0 0 0 0 0 0 0 0 
0 0 0 0 0 0 0 0 0 
0 0 0 0 0 1 1 1 1 
1 2 2 2 1 1 1 1 1 
2 2 2 2 2 2 1 1 1 
1 1 2 2 2 2 2 1 1 
1 1 1 2 1 1 1 1 1 
1 2 2 2 2 1 1 1 1 
1 1 1 1 1 2 2 2 2 
1 2 2 2 2 2 2 1 1 
1 1 2 2 2 2 2 0 0 
0 0 0 0 0 0 0 0 0 
0 0 0 0 0 0 0 0 0 
0 0 0 0 0 0 1 1 1 
1 1 1 1 1 1 1 1 1 
1 2 2 2 2 2 2 1 1 
1 1 1 1 1 1 1 1 1 
2 2 2 2 2 1 1 1 1 
1 1 2 2 2 2 1 2 2 
2 2 1 1 1 1 2 2 2 
2 1 1 2 2 2 2 2 1 
1 1 1 2 2 2 2 2 0 
0 0 0 0 0 0 0 0 0 
0 0 0 0 0 0 0 0 0 
0 0 0 0 0 0 0 1 1 
1 1 1 1 1 2 2 2 1 
1 1 1 1 1 1 1 1 1 
2 2 2 2 1 1 1 1 1 
1 2 2 2 2 2 1 1 1 
1 1 1 2 2 2 2 2 2 
2 2 2 1 1 1 1 2 2 
2 2 1 1 1 2 2 2 2 
1 1 1 1 2 2 2 2 2 
0 0 0 0 0 0 0 0 0 
0 0 0 0 0 0 0 0 0 
0 0 0 0 0 0 0 0 0 
1 1 1 1 1 2 2 2 2 
1 1 1 1 1 1 1 1 1 
1 2 2 2 2 2 1 1 1 
1 1 2 2 2 2 2 1 2 
2 2 2 1 2 2 2 1 2 
2 2 2 2 1 1 1 1 2 
2 2 2 1 1 1 1 2 2 
2 1 1 1 1 2 2 2 2 
2 0 0 0 0 0 0 0 0 
0 0 0 0 0 0 0 0 0 
0 0 0 0 0 0 0 0 0 
0 0 1 1 1 2 2 2 2 
2 1 1 1 1 1 1 2 1 
1 1 2 2 2 2 2 1 1 
1 1 1 2 2 2 2 2 1 
2 2 2 2 2 1 1 1 1 
2 2 2 2 2 2 1 1 1 
2 2 2 2 1 1 1 1 1 
1 1 1 1 1 1 1 1 2 
2 0 0 0 0 0 0 0 0 
0 0 0 0 0 0 0 0 0 
0 0 0 0 0 0 0 0 0 
0 0 0 0 1 2 2 2 2 
2 2 1 1 1 1 2 2 2 
1 1 1 2 2 2 2 2 2 
1 1 1 1 2 2 2 1 1 
1 2 2 2 2 2 1 1 1 
1 2 2 2 2 2 2 1 1 
1 2 2 2 2 1 1 1 1 
1 1 2 2 2 2 2 2 1 
1 0 0 0 0 0 0 0 0 
0 0 0 0 0 0 0 0 0 
0 0 0 0 0 0 0 0 0 
0 0 0 0 0 0 2 2 2 
2 2 2 1 1 2 2 2 2 
2 1 1 1 1 2 2 2 2 
1 1 1 1 1 2 2 1 1 
1 1 2 2 2 2 2 1 1 
1 1 1 1 1 1 1 1 1 
1 1 1 1 2 2 1 1 1 
1 1 1 2 2 2 2 2 2 
2 0 0 0 0 0 0 0 0 
0 0 0 0 0 0 0 0 0 
0 0 0 0 0 0 0 0 0 
0 0 0 0 0 0 0 0 2 
2 2 2 2 1 1 2 2 2 
2 2 1 1 1 1 1 2 2 
1 1 1 1 1 1 1 1 1 
1 1 1 1 2 2 2 1 1 
1 1 1 1 1 1 1 1 1 
2 2 2 2 1 1 1 1 2 
2 2 1 1 1 2 2 2 2 
2 0 0 0 0 0 0 0 0 
0 0 0 0 0 0 0 0 0 
0 0 0 0 0 0 0 0 0 
0 0 0 0 0 0 0 0 0 
0 2 2 1 1 1 1 2 2 
2 2 2 1 1 1 1 1 1 
1 1 1 1 1 1 1 2 2 
1 1 1 1 1 1 1 1 1 
1 1 1 2 2 1 1 1 1 
1 2 2 2 2 1 1 1 1 
2 2 2 1 1 1 1 2 2 
2 0 0 0 0 0 0 0 0 
0 0 0 0 0 0 0 0 0 
0 0 0 0 0 0 0 0 0 
0 0 0 0 0 0 0 0 0 
0 0 0 1 1 1 1 1 1 
2 2 2 2 1 1 1 2 2 
2 2 1 1 1 1 1 2 2 
2 2 1 1 1 1 2 2 2 
1 1 1 2 2 2 2 1 1 
1 2 2 2 2 2 1 1 1 
1 2 2 2 1 1 1 1 1 
2 0 0 0 0 0 0 0 0 
0 0 0 0 0 0 0 0 0 
0 0 0 0 0 0 0 0 0 
0 0 0 0 0 0 0 0 0 
0 0 0 0 0 1 1 1 1 
1 1 1 1 1 1 1 1 2 
2 2 2 2 1 1 1 2 2 
2 2 2 2 1 1 2 2 2 
2 2 1 1 2 2 2 2 2 
1 1 2 2 2 2 2 1 1 
1 1 2 2 2 1 1 1 1 
1 0 0 0 0 0 0 0 0 
0 0 0 0 0 0 0 0 0 
0 0 0 0 0 0 0 0 0 
0 0 0 0 0 0 0 0 0 
0 0 0 0 0 0 0 1 1 
1 1 1 1 1 1 1 1 1 
2 2 2 2 2 2 1 2 2 
2 2 2 2 2 1 2 2 2 
2 2 2 2 2 2 2 2 2 
2 1 1 2 2 2 2 2 1 
1 1 1 2 2 2 1 1 1 
1 0 0 0 0 0 0 0 0 
0 0 0 0 0 0 0 0 0 
0 0 0 0 0 0 0 0 0 
0 0 0 0 0 0 0 0 0 
0 0 0 0 0 0 0 0 0 
1 1 1 1 1 1 1 1 1 
1 2 2 2 2 2 2 1 2 
2 2 2 2 2 1 1 2 2 
2 2 2 2 1 1 2 2 2 
2 2 1 1 1 1 1 2 2 
1 1 1 1 2 2 2 1 1 
1 0 0 0 0 0 0 0 0 
0 0 0 0 0 0 0 0 0 
0 0 0 0 0 0 0 0 0 
0 0 0 0 0 0 0 0 0 
0 0 0 0 0 0 0 0 0 
0 0 1 1 2 2 1 1 1 
1 1 2 2 2 2 2 2 1 
1 1 1 1 1 1 1 1 1 
1 2 2 2 2 1 1 1 1 
2 2 2 1 1 1 1 1 1 
1 1 1 1 1 2 2 2 2 
1 0 0 0 0 0 0 0 0 
0 0 0 0 0 0 0 0 0 
0 0 0 0 0 0 0 0 0 
0 0 0 0 0 0 0 0 0 
0 0 0 0 0 0 0 0 0 
0 0 0 0 2 2 2 2 2 
2 2 1 1 1 1 1 2 1 
1 1 1 1 1 2 2 1 1 
1 1 1 1 1 1 1 1 1 
1 1 1 1 1 1 1 1 1 
1 1 1 1 1 1 1 2 2 
2 0 0 0 0 0 0 0 0 
0 0 0 0 0 0 0 0 0 
0 0 0 0 0 0 0 0 0 
0 0 0 0 0 0 0 0 0 
0 0 0 0 0 0 0 0 0 
0 0 0 0 0 0 2 2 2 
2 2 2 1 1 1 1 1 1 
1 1 1 1 2 2 2 2 2 
1 1 1 1 1 2 2 2 1 
1 1 1 1 1 2 2 2 2 
2 2 2 1 1 1 1 1 1 
2 0 0 0 0 0 0 0 0 
0 0 0 0 0 0 0 0 0 
0 0 0 0 0 0 0 0 0 
0 0 0 0 0 0 0 0 0 
0 0 0 0 0 0 0 0 0 
0 0 0 0 0 0 0 0 2 
2 2 2 2 1 1 1 1 1 
1 1 1 1 1 2 2 2 2 
2 1 1 1 1 2 2 2 2 
2 2 1 1 1 1 2 2 2 
2 2 2 2 1 1 1 1 1 
1 0 0 0 0 0 0 0 0 
0 0 0 0 0 0 0 0 0 
0 0 0 0 0 0 0 0 0 
0 0 0 0 0 0 0 0 0 
0 0 0 0 0 0 0 0 0 
0 0 0 0 0 0 0 0 0 
0 2 2 2 2 1 1 1 1 
1 1 1 1 1 1 2 2 2 
2 2 2 1 1 2 2 2 2 
2 2 2 1 1 1 1 2 2 
2 2 2 2 2 1 1 1 1 
1 0 0 0 0 0 0 0 0 
0 0 0 0 0 0 0 0 0 
0 0 0 0 0 0 0 0 0 
0 0 0 0 0 0 0 0 0 
0 0 0 0 0 0 0 0 0 
0 0 0 0 0 0 0 0 0 
0 0 0 2 2 2 1 1 1 
1 1 1 1 1 1 1 2 2 
2 2 2 2 1 1 2 2 2 
2 2 2 2 1 1 1 1 2 
2 2 2 2 2 2 1 1 1 
1 0 0 0 0 0 0 0 0 
0 0 0 0 0 0 0 0 0 
0 0 0 0 0 0 0 0 0 
0 0 0 0 0 0 0 0 0 
0 0 0 0 0 0 0 0 0 
0 0 0 0 0 0 0 0 0 
0 0 0 0 0 0 0 0 0 
0 0 0 0 0 0 0 0 0 
0 0 0 0 0 0 0 0 0 
0 0 0 0 0 0 0 0 0 
0 0 0 0 0 0 0 0 0 
0 0 0 0 0 0 0 0 0 
0 0 0 0 0 0 0 0 0 
0 0 0 0 0 0 0 0 0 
0 0 0 0 0 0 0 0 0 
0 0 0 0 0 0 0 0 0 
0 0 0 0 0 0 0 0 0 
0 0 0 0 0 0 0 0 0 
0 0 0 0 0 0 0 0 0 
0 0 0 0 0 0 0 0 0 
0 0 0 0 0 0 0 0 0 
0 0 0 0 0 0 0 0 0 
0 0 0 0 0 0 0 0 0 
0 0 0 0 0 0 0 0 0 
0 0 0 0 0 0 0 0 0 
0 0 0 0 0 0 0 0 0 
0 0 0 0 0 0 0 0 0 
0 0 0 0 0 0 0 0 0 
0 0 0 0 0 0 0 0 0 
0 0 0 0 0 0 0 0 0 
0 0 0 0 0 0 0 0 0 
0 0 0 0 0 0 0 0 0 
0 0 0 0 0 0 0 0 0 
0 0 0 0 0 0 0 0 0 
0 0 0 0 0 0 0 0 0 
0 0 0 0 0 0 0 0 0 
0 0 0 0 0 0 0 0 0 
0 0 0 0 0 0 0 0 0 
0 0 0 0 0 0 0 0 0 
0 0 0 0 0 0 0 0 0 
0 0 0 0 0 0 0 0 0 
0 0 0 0 0 0 0 0 0 
0 0 0 0 0 0 0 0 0 
0 0 0 0 0 0 0 0 0 
0 0 0 0 0 0 0 0 0 
0 0 0 0 0 0 0 0 0 
0 0 0 0 0 0 0 0 0 
0 0 0 0 0 0 0 0 0 
0 0 0 0 0 0 0 0 0 
0 0 0 0 0 0 0 0 0 
0 0 0 0 0 0 0 0 0 
0 0 0 0 0 0 0 0 0 
0 0 0 0 0 0 0 0 0 
0 0 0 0 0 0 0 0 0 
0 0 0 0 0 0 0 0 0 
0 0 0 0 0 0 0 0 0 
0 0 0 0 0 0 0 0 0 
0 0 0 0 0 0 0 0 0 
0 0 0 0 0 0 0 0 0 
0 0 0 0 0 0 0 0 0 
0 0 0 0 0 0 0 0 0 
0 0 0 0 0 0 0 0 0 
0 0 0 0 0 0 0 0 0 
0 0 0 0 0 0 0 0 0 
0 0 0 0 0 0 0 0 0 
0 0 0 0 0 0 0 0 0 
0 0 0 0 0 0 0 0 0 
0 0 0 0 0 0 0 0 0 
0 0 0 0 0 0 0 0 0 
0 0 0 0 0 0 0 0 0 
0 0 0 0 0 0 0 0 0 
0 0 0 0 0 0 0 0 0 
0 0 0 0 0 0 0 0 0 
0 0 0 0 0 0 0 0 0 
0 0 0 0 0 0 0 0 0 
0 0 0 0 0 0 0 0 0 
0 0 0 0 0 0 0 0 0 
0 0 0 0 0 0 0 0 0 
0 0 0 0 0 0 0 0 0 
0 0 0 0 0 0 0 0 0 
0 0 0 0 0 0 0 0 0 
0 0 0 0 0 0 0 0 0 
0 0 0 0 0 0 0 0 0 
0 0 0 0 0 0 0 0 0 
0 0 0 0 0 0 0 0 0 
0 0 0 0 0 0 0 0 0 
0 0 0 0 0 0 0 0 0 
0 0 0 0 0 0 0 0 0 
0 0 0 0 0 0 0 0 0 
0 0 0 0 0 0 0 0 0 
0 0 0 0 0 0 0 0 0 
0 0 0 0 0 0 0 0 0 
0 0 0 0 0 0 0 0 0 
0 0 0 0 0 0 0 0 0 
0 0 0 0 0 0 0 0 0 
0 0 0 0 0 0 0 0 0 
0 0 0 0 0 0 0 0 0 
0 0 0 0 0 0 0 0 0 
0 0 0 0 0 0 0 0 0 
0 0 0 0 0 0 0 0 0 
0 0 0 0 0 0 0 0 0 
0 0 0 0 0 0 0 0 0 
0 0 0 0 0 0 0 0 0 
0 0 0 0 0 0 0 0 0 
0 0 0 0 0 0 0 0 0 
0 0 0 0 0 0 0 0 0 
0 0 0 0 0 0 0 0 0 
0 0 0 0 0 0 0 0 0 
0 0 0 0 0 0 0 0 0 
0 0 0 0 0 0 0 0 0 
0 0 0 0 0 0 0 0 0 
0 0 0 0 0 0 0 0 0 
0 0 0 0 0 0 0 0 0 
0 0 0 0 0 0 0 0 0 
0 
CellId 1 10000 long
0 0 0 0 0 0 0 0 0 
0 0 0 0 0 0 0 0 0 
0 0 0 0 0 0 0 0 0 
0 0 0 0 0 0 0 0 0 
0 0 0 0 0 0 0 0 0 
0 0 0 0 0 0 0 0 0 
0 0 0 0 0 0 0 0 0 
0 0 0 0 0 0 0 0 0 
0 0 0 0 0 0 0 0 0 
0 0 0 0 0 0 0 0 0 
0 0 0 0 0 0 0 0 0 
0 0 0 0 0 0 0 0 0 
0 0 0 0 0 0 0 0 0 
0 0 0 0 0 0 0 0 0 
0 0 0 0 0 0 0 0 0 
0 0 0 0 0 0 0 0 0 
0 0 0 0 0 0 0 0 0 
0 0 0 0 0 0 0 0 0 
0 0 0 0 0 0 0 0 0 
0 0 0 0 0 0 0 0 0 
0 0 0 0 0 0 0 0 0 
0 0 0 0 0 0 0 0 0 
0 0 0 0 0 0 0 0 0 
0 0 0 0 0 0 0 0 0 
0 0 0 0 0 0 0 0 0 
0 0 0 0 0 0 0 0 0 
0 0 0 0 0 0 0 0 0 
0 0 0 0 0 0 0 0 0 
0 0 0 0 0 0 0 0 0 
0 0 0 0 0 0 0 0 0 
0 0 0 0 0 0 0 0 0 
0 0 0 0 0 0 0 0 0 
0 0 0 0 0 0 0 0 0 
0 0 0 0 0 0 0 0 0 
0 0 0 0 0 0 0 0 0 
0 0 0 0 0 0 0 0 0 
0 0 0 0 0 0 0 0 0 
0 0 0 0 0 0 0 0 0 
0 0 0 0 0 0 0 0 0 
0 0 0 0 0 0 0 0 0 
0 0 0 0 0 0 0 0 0 
0 0 0 0 0 0 0 0 0 
0 0 0 0 0 0 0 0 0 
0 0 0 0 0 0 0 0 0 
0 0 0 0 0 0 0 0 0 
0 0 0 0 0 0 0 0 0 
0 0 0 0 0 0 0 0 0 
0 0 0 0 0 0 0 0 0 
0 0 0 0 0 0 0 0 0 
0 0 0 0 0 0 0 0 0 
0 0 0 0 0 0 0 0 0 
0 0 0 0 0 0 0 0 0 
0 0 0 0 0 0 0 0 0 
0 0 0 0 0 0 0 0 0 
0 0 0 0 0 0 0 0 0 
0 0 0 0 0 0 0 0 0 
0 0 0 0 0 0 0 0 0 
0 0 0 0 0 0 0 0 0 
0 0 0 0 0 0 0 0 0 
0 0 0 0 0 0 0 0 0 
0 0 0 0 0 0 0 0 0 
0 0 0 0 0 0 0 0 0 
0 0 0 0 0 0 0 0 0 
0 0 0 0 0 0 0 0 0 
0 0 0 0 0 0 0 0 0 
0 0 0 0 0 0 0 0 0 
0 0 0 0 0 0 0 0 0 
0 0 0 0 0 0 0 0 0 
0 0 0 0 0 0 0 0 0 
0 0 0 0 0 0 0 0 0 
0 0 0 0 0 0 0 0 0 
0 0 0 0 0 0 0 0 0 
0 0 0 0 0 0 0 0 0 
0 0 0 0 0 0 0 0 0 
0 0 0 0 0 0 0 0 0 
0 0 0 0 0 0 0 0 0 
0 0 0 0 0 0 0 0 0 
0 0 0 0 0 0 0 0 0 
0 0 0 0 0 0 0 0 0 
0 0 0 0 0 0 0 0 0 
0 0 0 0 0 0 0 0 0 
0 0 0 0 0 0 0 0 0 
0 0 0 0 0 0 0 0 0 
0 0 0 0 0 0 0 0 0 
0 0 0 0 0 0 0 0 0 
0 0 0 0 0 0 0 0 0 
0 0 0 0 0 0 0 0 0 
0 0 0 0 0 0 0 0 0 
0 0 0 0 0 0 0 0 0 
0 0 0 0 0 0 0 0 0 
0 0 0 0 0 0 0 0 0 
0 0 0 0 0 0 0 0 0 
0 0 0 0 0 0 0 0 0 
0 0 0 0 0 0 0 0 0 
0 0 0 0 0 0 0 0 0 
0 0 0 0 0 0 0 0 0 
0 0 0 0 0 0 0 0 0 
0 0 0 0 0 0 0 0 0 
0 0 0 0 0 0 0 0 0 
0 0 0 0 0 0 0 0 0 
0 0 0 0 0 0 0 0 0 
0 0 0 0 0 0 0 0 0 
0 0 0 0 0 0 0 0 0 
0 0 0 0 0 0 0 0 0 
0 0 0 0 0 0 0 0 0 
0 0 0 0 0 0 0 0 0 
0 0 0 0 0 0 0 0 0 
0 0 0 0 0 0 0 0 0 
0 0 0 0 0 0 0 0 0 
0 0 0 0 0 0 0 0 0 
0 0 0 0 0 0 0 0 0 
0 0 0 0 0 0 0 0 0 
0 0 0 0 0 0 0 0 0 
0 0 0 0 0 0 0 0 0 
0 0 0 0 0 0 0 0 0 
0 0 0 0 0 0 0 0 0 
0 0 0 0 0 0 0 0 0 
0 0 0 0 0 0 0 0 0 
0 0 0 0 0 0 0 0 0 
0 0 0 0 0 0 0 0 0 
0 0 0 0 0 0 0 0 0 
0 0 0 0 0 0 0 0 0 
0 0 0 0 0 0 0 0 0 
0 0 0 0 0 0 0 0 0 
0 0 0 0 0 0 0 0 0 
0 0 0 0 0 0 0 0 0 
0 0 0 0 0 0 0 0 0 
0 0 0 0 0 0 0 0 0 
0 0 0 0 0 0 0 0 0 
0 0 0 0 0 0 0 0 0 
0 0 0 0 0 0 0 0 0 
0 0 0 0 0 0 0 0 0 
0 0 0 0 0 0 0 0 0 
0 0 0 0 0 0 0 0 0 
0 0 0 0 0 0 0 0 0 
0 0 0 0 0 0 0 0 0 
0 0 0 0 0 0 0 0 0 
0 0 0 0 0 0 0 0 0 
0 0 0 0 0 0 0 0 0 
0 0 0 0 0 0 0 0 0 
0 0 0 0 0 0 0 0 0 
0 0 0 0 0 0 0 0 0 
0 0 0 0 0 0 0 0 0 
0 0 0 0 0 0 0 0 0 
0 0 0 0 0 0 0 0 0 
0 0 0 0 0 0 0 0 0 
0 0 0 0 0 0 0 0 0 
0 0 0 0 0 0 0 0 0 
0 0 0 0 0 0 0 0 0 
0 0 0 0 0 0 0 0 0 
0 0 0 0 0 0 0 0 0 
0 0 0 0 0 0 0 0 0 
0 0 0 0 0 0 0 0 0 
0 0 0 0 0 0 0 0 0 
0 0 0 0 0 0 0 0 0 
0 0 0 0 0 0 0 0 0 
0 0 0 0 0 0 0 0 0 
0 0 0 0 0 0 0 0 0 
0 0 0 0 0 0 0 0 0 
0 0 0 0 0 0 0 0 0 
0 0 0 0 0 0 0 0 0 
0 0 0 0 0 0 0 0 0 
0 0 0 0 0 0 0 0 0 
0 0 0 0 0 0 0 0 0 
0 0 0 0 0 0 0 0 0 
0 0 0 0 0 0 0 0 0 
0 0 0 0 0 0 0 0 0 
0 0 0 0 0 0 0 0 0 
0 0 0 0 0 0 0 0 0 
0 0 0 0 0 0 0 0 0 
0 1 1 1 1 1 1 2 2 
2 2 2 2 11 3 3 3 3 
3 4 4 4 15 15 15 15 15 
5 5 5 5 6 6 6 6 6 
7 7 7 7 17 17 0 0 0 
0 0 0 0 0 0 0 0 0 
0 0 0 0 0 0 0 0 0 
0 0 0 0 0 0 0 0 0 
0 0 0 0 0 0 0 0 0 
0 0 0 0 0 0 0 0 0 
0 0 0 0 0 0 0 0 0 
0 1 1 1 1 1 1 9 9 
2 2 2 2 2 11 3 3 3 
3 3 4 4 4 15 15 15 15 
15 5 5 5 5 6 6 6 6 
6 7 7 7 7 17 17 17 0 
0 0 0 0 0 0 0 0 0 
0 0 0 0 0 0 0 0 0 
0 0 0 0 0 0 0 0 0 
0 0 0 0 0 0 0 0 0 
0 0 0 0 0 0 0 0 0 
0 0 0 0 0 0 0 0 0 
0 1 1 1 1 1 1 9 9 
9 2 2 2 2 2 11 3 3 
3 3 3 4 4 4 15 15 15 
15 15 5 5 5 5 6 6 6 
6 6 7 7 7 7 17 17 17 
17 0 0 0 0 0 0 0 0 
0 0 0 0 0 0 0 0 0 
0 0 0 0 0 0 0 0 0 
0 0 0 0 0 0 0 0 0 
0 0 0 0 0 0 0 0 0 
0 0 0 0 0 0 0 0 0 
0 8 9 9 9 9 9 9 9 
9 9 2 2 2 2 11 11 3 
3 3 3 4 4 4 4 15 15 
15 15 15 5 5 5 5 5 6 
6 6 6 7 7 7 7 17 17 
17 17 17 0 0 0 0 0 0 
0 0 0 0 0 0 0 0 0 
0 0 0 0 0 0 0 0 0 
0 0 0 0 0 0 0 0 0 
0 0 0 0 0 0 0 0 0 
0 0 0 0 0 0 0 0 0 
0 8 8 8 9 9 9 9 9 
9 9 9 9 2 2 11 11 11 
3 3 3 3 4 4 4 4 15 
15 15 15 5 5 5 5 5 5 
6 6 6 6 7 7 7 7 17 
17 17 17 17 17 0 0 0 0 
0 0 0 0 0 0 0 0 0 
0 0 0 0 0 0 0 0 0 
0 0 0 0 0 0 0 0 0 
0 0 0 0 0 0 0 0 0 
0 0 0 0 0 0 0 0 0 
0 8 8 8 8 8 9 9 9 
9 9 9 9 9 11 11 11 11 
11 11 11 3 4 4 4 4 4 
15 15 15 15 5 5 5 5 5 
5 6 6 6 6 7 7 7 7 
17 17 17 17 17 17 18 18 18 
0 0 0 0 0 0 0 0 0 
0 0 0 0 0 0 0 0 0 
0 0 0 0 0 0 0 0 0 
0 0 0 0 0 0 0 0 0 
0 0 0 0 0 0 0 0 0 
0 20 8 8 8 8 8 8 10 
10 10 10 10 10 10 11 11 11 
11 11 11 11 4 4 4 4 4 
4 14 14 14 14 14 26 26 26 
26 27 27 27 27 27 7 7 7 
7 7 17 17 17 17 28 18 18 
18 18 0 0 0 0 0 0 0 
0 0 0 0 0 0 0 0 0 
0 0 0 0 0 0 0 0 0 
0 0 0 0 0 0 0 0 0 
0 0 0 0 0 0 0 0 0 
0 19 20 20 8 8 8 8 21 
21 10 10 10 10 10 10 11 11 
11 11 11 11 12 12 12 12 12 
12 12 14 14 14 14 14 26 26 
26 26 27 27 27 27 27 16 16 
16 16 16 28 28 28 28 28 18 
18 18 18 18 0 0 0 0 0 
0 0 0 0 0 0 0 0 0 
0 0 0 0 0 0 0 0 0 
0 0 0 0 0 0 0 0 0 
0 0 0 0 0 0 0 0 0 
0 19 19 20 20 20 8 8 8 
21 21 10 10 10 10 10 10 22 
23 23 23 23 37 12 12 12 12 
12 12 12 14 14 14 14 14 26 
26 26 26 27 27 27 27 27 16 
16 16 16 16 28 28 28 28 28 
18 18 18 18 18 18 0 0 0 
0 0 0 0 0 0 0 0 0 
0 0 0 0 0 0 0 0 0 
0 0 0 0 0 0 0 0 0 
0 0 0 0 0 0 0 0 0 
0 19 19 19 20 20 20 20 20 
21 21 21 21 10 10 10 10 22 
22 23 23 23 23 37 37 12 12 
12 12 12 12 14 14 14 14 14 
26 26 26 26 27 27 27 27 27 
16 16 16 16 16 28 28 28 30 
30 30 18 18 18 18 31 31 0 
0 0 0 0 0 0 0 0 0 
0 0 0 0 0 0 0 0 0 
0 0 0 0 0 0 0 0 0 
0 0 0 0 0 0 0 0 0 
0 19 19 19 19 20 20 20 20 
20 21 21 21 21 21 10 22 22 
22 22 23 23 23 23 37 37 37 
12 12 12 12 14 14 14 14 14 
14 26 26 26 26 27 27 27 27 
27 16 16 16 16 16 28 28 28 
30 30 30 30 43 43 43 31 31 
31 0 0 0 0 0 0 0 0 
0 0 0 0 0 0 0 0 0 
0 0 0 0 0 0 0 0 0 
0 0 0 0 0 0 0 0 0 
0 19 19 19 19 19 20 20 20 
20 20 21 21 21 21 21 22 22 
22 22 22 23 23 23 23 37 37 
37 37 12 12 12 14 14 25 25 
25 14 26 26 26 26 27 27 27 
27 27 27 16 16 16 16 28 28 
28 30 30 30 30 43 43 43 31 
31 31 31 0 0 0 0 0 0 
0 0 0 0 0 0 0 0 0 
0 0 0 0 0 0 0 0 0 
0 0 0 0 0 0 0 0 0 
0 33 33 19 19 19 19 20 20 
20 20 34 34 21 21 21 21 22 
22 22 22 22 23 23 23 23 37 
37 37 37 37 12 12 14 25 25 
25 25 25 39 39 39 39 40 40 
40 40 40 40 28 28 28 28 28 
28 28 30 30 30 30 43 43 43 
31 31 31 31 31 0 0 0 0 
0 0 0 0 0 0 0 0 0 
0 0 0 0 0 0 0 0 0 
0 0 0 0 0 0 0 0 0 
0 32 32 33 33 33 33 33 33 
34 34 34 34 34 34 21 21 21 
22 22 22 22 22 23 23 23 23 
37 37 37 37 37 37 13 13 25 
25 25 25 25 39 39 39 39 40 
40 40 40 40 40 28 28 28 29 
29 29 29 30 30 30 30 43 43 
43 31 31 31 31 31 31 0 0 
0 0 0 0 0 0 0 0 0 
0 0 0 0 0 0 0 0 0 
0 0 0 0 0 0 0 0 0 
0 32 32 32 32 33 33 33 33 
33 34 34 34 34 34 34 21 21 
35 35 22 22 22 22 23 23 23 
23 37 37 37 37 37 37 13 13 
25 25 25 25 25 39 39 39 39 
40 40 40 40 40 40 28 28 28 
29 29 29 29 29 43 43 43 43 
43 43 31 31 31 31 44 44 44 
0 0 0 0 0 0 0 0 0 
0 0 0 0 0 0 0 0 0 
0 0 0 0 0 0 0 0 0 
0 32 32 32 32 32 33 33 33 
33 33 34 34 34 34 34 34 21 
35 35 35 35 35 35 36 36 36 
36 36 36 24 24 24 24 24 13 
13 13 25 25 25 25 39 39 39 
39 39 40 40 40 40 40 41 41 
41 29 29 29 29 29 43 43 43 
43 43 43 44 44 44 44 44 44 
59 59 0 0 0 0 0 0 0 
0 0 0 0 0 0 0 0 0 
0 0 0 0 0 0 0 0 0 
0 32 32 32 32 32 32 33 33 
33 33 33 34 34 34 34 34 34 
48 35 35 35 35 35 35 36 36 
36 36 36 36 24 24 24 24 24 
13 13 13 13 13 13 53 53 53 
39 39 39 39 39 39 39 41 41 
41 41 42 29 29 29 29 43 43 
43 58 58 58 44 44 44 44 44 
59 59 59 59 0 0 0 0 0 
0 0 0 0 0 0 0 0 0 
0 0 0 0 0 0 0 0 0 
0 0 32 32 32 32 32 32 33 
33 33 33 33 48 48 48 48 48 
48 48 35 35 35 35 35 35 36 
36 36 36 36 36 24 24 24 24 
24 13 13 13 13 13 53 53 53 
53 53 39 39 39 39 39 39 41 
41 41 41 42 42 29 29 29 43 
43 43 58 58 58 58 44 44 44 
44 59 59 59 59 0 0 0 0 
0 0 0 0 0 0 0 0 0 
0 0 0 0 0 0 0 0 0 
0 0 0 45 46 46 46 46 46 
46 47 47 47 47 48 48 48 48 
48 48 48 35 35 35 35 35 35 
36 36 36 36 36 36 24 24 24 
24 24 13 13 13 13 13 53 53 
53 53 53 39 54 54 54 54 54 
41 41 41 41 42 42 42 42 42 
43 43 43 58 58 58 58 58 44 
44 44 59 59 59 59 0 0 0 
0 0 0 0 0 0 0 0 0 
0 0 0 0 0 0 0 0 0 
0 0 0 0 45 45 45 46 46 
46 46 47 47 47 47 48 48 48 
48 48 48 48 49 49 49 49 49 
49 36 36 36 36 36 36 24 24 
24 24 24 13 13 13 13 13 53 
53 53 53 53 68 54 54 54 54 
54 42 42 42 42 42 42 42 42 
56 56 56 43 58 58 58 58 58 
58 44 44 59 59 59 59 0 0 
0 0 0 0 0 0 0 0 0 
0 0 0 0 0 0 0 0 0 
0 0 0 0 0 45 45 45 46 
46 46 46 47 47 47 47 47 48 
48 48 48 48 63 49 49 49 49 
49 49 51 51 51 51 51 36 38 
38 38 38 38 13 13 13 13 13 
53 53 53 53 68 68 54 54 54 
54 54 42 42 42 42 42 42 42 
56 56 56 56 56 58 58 58 58 
58 58 58 44 59 59 59 59 0 
0 0 0 0 0 0 0 0 0 
0 0 0 0 0 0 0 0 0 