# vtk DataFile Version 5.1
vtk output
ASCII
DATASET STRUCTURED_POINTS
DIMENSIONS 100 100 1
SPACING 1 1 1
ORIGIN 0 0 0
POINT_DATA 10000
FIELD FieldData 3
CellType 1 10000 char
0 0 0 0 0 0 0 0 0 
0 0 0 0 0 0 0 0 0 
0 0 0 0 0 0 0 0 0 
0 0 0 0 0 0 0 0 0 
0 0 0 0 0 0 0 0 0 
0 0 0 0 0 0 0 0 0 
0 0 0 0 0 0 0 0 0 
0 0 0 0 0 0 0 0 0 
0 0 0 0 0 0 0 0 0 
0 0 0 0 0 0 0 0 0 
0 0 0 0 0 0 0 0 0 
0 0 0 0 0 0 0 0 0 
0 0 0 0 0 0 0 0 0 
0 0 0 0 0 0 0 0 0 
0 0 0 0 0 0 0 0 0 
0 0 0 0 0 0 0 0 0 
0 0 0 0 0 0 0 0 0 
0 0 0 0 0 0 0 0 0 
0 0 0 0 0 0 0 0 0 
0 0 0 0 0 0 0 0 0 
0 0 0 0 0 0 0 0 0 
0 0 0 0 0 0 0 0 0 
0 0 0 0 0 0 0 0 0 
0 0 0 0 0 0 0 0 0 
0 0 0 0 0 0 0 0 0 
0 0 0 0 0 0 0 0 0 
0 0 0 0 0 0 0 0 0 
0 0 0 0 0 0 0 0 0 
0 0 0 0 0 0 0 0 0 
0 0 0 0 0 0 0 0 0 
0 0 0 0 0 0 0 0 0 
0 0 0 0 0 0 0 0 0 
0 0 0 0 0 0 0 0 0 
0 0 0 0 0 0 0 0 0 
0 0 0 0 0 0 0 0 0 
0 0 0 0 0 0 0 0 0 
0 0 0 0 0 0 0 0 0 
0 0 0 0 0 0 0 0 0 
0 0 0 0 0 0 0 0 0 
0 0 0 0 0 0 0 0 0 
0 0 0 0 0 0 0 0 0 
0 0 0 0 0 0 0 0 0 
0 0 0 0 0 0 0 0 0 
0 0 0 0 0 0 0 0 0 
0 0 0 0 0 0 0 0 0 
0 0 0 0 0 0 0 0 0 
0 0 0 0 0 0 0 0 0 
0 0 0 0 0 0 0 0 0 
0 0 0 0 0 0 0 0 0 
0 0 0 0 0 0 0 0 0 
0 0 0 0 0 0 0 0 0 
0 0 0 0 0 0 0 0 0 
0 0 0 0 0 0 0 0 0 
0 0 0 0 0 0 0 0 0 
0 0 0 0 0 0 0 0 0 
0 0 0 0 0 0 0 0 0 
0 0 0 0 0 0 0 0 0 
0 0 0 0 0 0 0 0 0 
0 0 0 0 0 0 0 0 0 
0 0 0 0 0 0 0 0 0 
0 0 0 0 0 0 0 0 0 
0 0 0 0 0 0 0 0 0 
0 0 0 0 0 0 0 0 0 
0 0 0 0 0 0 0 0 0 
0 0 0 0 0 0 0 0 0 
0 0 0 0 0 0 0 0 0 
0 0 0 0 0 0 0 0 0 
0 0 0 0 0 0 0 0 0 
0 0 0 0 0 0 0 0 0 
0 0 0 0 0 0 0 0 0 
0 0 0 0 0 0 0 0 0 
0 0 0 0 0 0 0 0 0 
0 0 0 0 0 0 0 0 0 
0 0 0 0 0 0 0 0 0 
0 0 0 0 0 0 0 0 0 
0 0 0 0 0 0 0 0 0 
0 0 0 0 0 0 0 0 0 
0 0 0 0 0 0 0 0 0 
0 0 0 0 0 0 0 0 0 
0 0 0 0 0 0 0 0 0 
0 0 0 0 0 0 0 0 0 
0 0 0 0 0 0 0 0 0 
0 0 0 0 0 0 0 0 0 
0 0 0 0 0 0 0 0 0 
0 0 0 0 0 0 0 0 0 
0 0 0 0 0 0 0 0 0 
0 0 0 0 0 0 0 0 0 
0 0 0 0 0 0 0 0 0 
0 0 0 0 0 0 0 0 0 
0 0 0 0 0 0 0 0 0 
0 0 0 0 0 0 0 0 0 
0 0 0 0 0 0 0 0 0 
0 0 0 0 0 0 0 0 0 
0 0 0 0 0 0 0 0 0 
0 0 0 0 0 0 0 0 0 
0 0 0 0 0 0 0 0 0 
0 0 0 0 0 0 0 0 0 
0 0 0 0 0 0 0 0 0 
0 0 0 0 0 0 0 0 0 
0 0 0 0 0 0 0 0 0 
0 0 0 0 0 0 0 0 0 
0 0 0 0 0 0 0 0 0 
0 0 0 0 0 0 0 0 0 
0 0 0 0 0 0 0 0 0 
0 0 0 0 0 0 0 0 0 
0 0 0 0 0 0 0 0 0 
0 0 0 0 0 0 0 0 0 
0 0 0 0 0 0 0 0 0 
0 0 0 0 0 0 0 0 0 
0 0 0 0 0 0 0 0 0 
0 0 0 0 0 0 0 0 0 
0 0 0 0 0 0 0 0 0 
0 0 0 0 0 0 0 0 0 
0 0 0 0 0 0 0 0 0 
0 0 0 0 0 0 0 0 0 
0 0 0 0 0 0 0 0 0 
0 0 0 0 0 0 0 0 0 
0 0 0 0 0 0 0 0 0 
0 0 0 0 0 0 0 0 0 
0 0 0 0 0 0 0 0 0 
0 0 0 0 0 0 0 0 0 
0 0 0 0 0 0 0 0 0 
0 0 0 0 0 0 0 0 0 
0 0 0 0 0 0 0 0 0 
0 0 0 0 0 0 0 0 0 
0 0 0 0 0 0 0 0 0 
0 0 0 0 0 0 0 0 0 
0 0 0 0 0 0 0 0 0 
0 0 0 0 0 0 0 0 0 
0 0 0 0 0 0 0 0 0 
0 0 0 0 0 0 0 0 0 
0 0 0 0 0 0 0 0 0 
0 0 0 0 0 0 0 0 0 
0 0 0 0 0 0 0 0 0 
0 0 0 0 0 0 0 0 0 
0 0 0 0 0 0 0 0 0 
0 0 0 0 0 0 0 0 0 
0 0 0 0 0 0 0 0 0 
0 0 0 0 0 0 0 0 0 
0 0 0 0 0 0 0 0 0 
0 0 0 0 0 0 0 0 0 
0 0 0 0 0 0 0 0 0 
0 0 0 0 0 0 0 0 0 
0 0 0 0 0 0 0 0 0 
0 0 0 0 0 0 0 0 0 
0 0 0 0 0 0 0 0 0 
0 0 0 0 0 0 0 0 0 
0 0 0 0 0 0 0 0 0 
0 0 0 0 0 0 0 0 0 
0 0 0 0 0 0 0 0 0 
0 0 0 0 0 0 0 0 0 
0 0 0 0 0 0 0 0 0 
0 0 0 0 0 0 0 0 0 
0 0 0 0 0 0 0 0 0 
0 0 0 0 0 0 0 0 0 
0 0 0 0 0 0 0 0 0 
0 0 0 0 0 0 0 0 0 
0 0 0 0 0 0 0 0 0 
0 0 0 0 0 0 0 0 0 
0 0 0 0 0 0 0 0 0 
0 0 0 0 0 0 0 0 0 
0 0 0 0 0 0 0 0 0 
0 0 0 0 0 0 0 0 0 
0 0 0 0 0 0 0 0 0 
0 0 0 0 0 0 0 0 0 
0 0 0 0 0 0 0 0 0 
0 0 0 0 0 0 0 0 0 
0 0 0 0 0 0 0 0 0 
0 0 0 0 0 0 0 0 0 
0 0 0 0 0 0 0 0 0 
0 0 0 1 1 1 1 1 1 
1 1 1 1 1 1 1 1 1 
1 1 1 1 1 1 1 2 2 
2 2 2 2 2 1 1 1 2 
2 2 2 2 2 2 0 0 0 
0 0 0 0 0 0 0 0 0 
0 0 0 0 0 0 0 0 0 
0 0 0 0 0 0 0 0 0 
0 0 0 0 0 0 0 0 0 
0 0 0 0 0 0 0 0 0 
0 0 0 0 0 0 0 0 0 
0 0 0 1 1 1 1 1 1 
1 1 1 1 1 1 1 1 1 
1 1 1 1 1 1 1 1 2 
2 2 2 2 2 2 1 1 1 
2 2 2 2 2 2 2 1 1 
0 0 0 0 0 0 0 0 0 
0 0 0 0 0 0 0 0 0 
0 0 0 0 0 0 0 0 0 
0 0 0 0 0 0 0 0 0 
0 0 0 0 0 0 0 0 0 
0 0 0 0 0 0 0 0 0 
0 0 2 2 1 1 1 1 1 
1 1 1 1 1 1 1 1 1 
1 1 1 1 1 1 1 1 1 
2 2 2 2 2 2 1 1 1 
1 2 2 2 2 2 2 1 1 
1 1 0 0 0 0 0 0 0 
0 0 0 0 0 0 0 0 0 
0 0 0 0 0 0 0 0 0 
0 0 0 0 0 0 0 0 0 
0 0 0 0 0 0 0 0 0 
0 0 0 0 0 0 0 0 0 
0 0 2 2 2 2 1 1 1 
1 1 2 2 1 1 1 1 1 
1 1 1 1 1 1 1 1 1 
1 1 2 2 2 2 1 1 1 
1 1 1 2 2 2 2 1 1 
1 1 1 1 0 0 0 0 0 
0 0 0 0 0 0 0 0 0 
0 0 0 0 0 0 0 0 0 
0 0 0 0 0 0 0 0 0 
0 0 0 0 0 0 0 0 0 
0 0 0 0 0 0 0 0 0 
0 1 1 2 2 2 2 2 1 
1 1 2 2 2 2 2 2 2 
2 1 1 1 1 2 2 1 1 
1 1 1 2 2 2 1 1 1 
1 1 1 1 2 2 2 1 1 
1 1 1 1 1 2 0 0 0 
0 0 0 0 0 0 0 0 0 
0 0 0 0 0 0 0 0 0 
0 0 0 0 0 0 0 0 0 
0 0 0 0 0 0 0 0 0 
0 0 0 0 0 0 0 0 0 
0 1 1 1 2 2 2 2 2 
1 1 1 2 2 2 2 2 2 
2 2 1 1 1 2 2 2 2 
1 1 1 2 2 2 2 1 1 
1 1 1 1 1 2 2 2 2 
1 1 1 1 1 2 2 1 1 
0 0 0 0 0 0 0 0 0 
0 0 0 0 0 0 0 0 0 
0 0 0 0 0 0 0 0 0 
0 0 0 0 0 0 0 0 0 
0 0 0 0 0 0 0 0 0 
0 1 1 1 1 2 2 2 2 
1 1 1 1 1 2 2 2 2 
2 2 2 1 1 2 2 2 2 
2 2 1 2 2 2 2 2 2 
2 2 2 2 2 2 2 2 2 
2 2 1 1 1 2 2 2 1 
1 1 0 0 0 0 0 0 0 
0 0 0 0 0 0 0 0 0 
0 0 0 0 0 0 0 0 0 
0 0 0 0 0 0 0 0 0 
0 0 0 0 0 0 0 0 0 
0 1 1 1 1 1 2 2 2 
2 1 1 1 1 1 1 2 2 
2 2 2 1 1 1 2 2 2 
2 2 2 1 2 2 2 2 2 
2 2 2 2 2 2 2 2 2 
2 2 2 2 1 2 2 2 2 
1 1 1 1 0 0 0 0 0 
0 0 0 0 0 0 0 0 0 
0 0 0 0 0 0 0 0 0 
0 0 0 0 0 0 0 0 0 
0 0 0 0 0 0 0 0 0 
0 1 1 1 1 1 1 2 2 
2 2 1 1 1 1 1 1 2 
2 2 2 1 1 1 1 1 2 
2 2 2 1 1 1 2 2 2 
2 2 2 2 2 2 2 2 2 
2 2 2 2 1 1 2 2 2 
2 1 1 1 1 1 0 0 0 
0 0 0 0 0 0 0 0 0 
0 0 0 0 0 0 0 0 0 
0 0 0 0 0 0 0 0 0 
0 0 0 0 0 0 0 0 0 
0 2 2 1 1 1 1 1 2 
2 2 2 1 1 1 1 1 1 
1 1 1 1 1 1 1 1 1 
2 2 2 2 1 1 1 1 2 
2 2 1 1 2 2 2 2 2 
2 2 2 2 1 1 1 1 2 
2 2 1 1 1 1 1 2 0 
0 0 0 0 0 0 0 0 0 
0 0 0 0 0 0 0 0 0 
0 0 0 0 0 0 0 0 0 
0 0 0 0 0 0 0 0 0 
0 2 2 2 2 1 1 1 1 
1 1 1 1 1 2 2 2 2 
2 1 1 1 1 2 1 1 1 
1 2 2 2 2 1 1 1 1 
2 2 1 1 1 2 2 2 2 
2 2 2 2 1 1 1 1 1 
2 2 2 1 1 1 1 2 2 
2 0 0 0 0 0 0 0 0 
0 0 0 0 0 0 0 0 0 
0 0 0 0 0 0 0 0 0 
0 0 0 0 0 0 0 0 0 
0 2 2 2 2 2 2 2 2 
2 1 1 1 1 1 2 2 2 
2 2 1 1 1 1 2 2 1 
1 1 2 2 2 2 1 1 1 
1 1 1 1 1 1 2 2 2 
2 2 2 2 2 2 1 1 1 
1 1 2 2 1 1 1 2 2 
2 2 2 0 0 0 0 0 0 
0 0 0 0 0 0 0 0 0 
0 0 0 0 0 0 0 0 0 
0 0 0 0 0 0 0 0 0 
0 1 2 2 2 2 2 2 2 
2 2 1 1 1 1 1 1 2 
2 2 2 1 1 1 1 2 2 
2 2 1 1 1 1 1 1 1 
1 1 2 1 1 1 1 2 2 
2 2 2 2 2 2 2 1 1 
1 1 1 2 2 1 1 2 2 
2 2 2 2 0 0 0 0 0 
0 0 0 0 0 0 0 0 0 
0 0 0 0 0 0 0 0 0 
0 0 0 0 0 0 0 0 0 
0 1 1 1 2 2 2 2 2 
1 1 1 1 1 1 1 1 1 
2 2 2 2 1 1 1 1 2 
2 2 2 1 1 1 1 1 2 
2 2 2 2 1 1 1 1 2 
2 2 1 1 2 2 2 2 1 
1 1 1 1 2 2 2 2 2 
2 2 2 2 2 0 0 0 0 
0 0 0 0 0 0 0 0 0 
0 0 0 0 0 0 0 0 0 
0 0 0 0 0 0 0 0 0 
0 1 1 1 1 1 2 2 2 
1 1 1 1 2 2 2 2 1 
1 2 2 2 2 1 1 1 2 
2 2 2 2 1 1 1 1 1 
2 2 2 2 2 1 1 1 1 
2 2 1 1 1 1 2 2 2 
2 2 2 2 2 1 1 1 1 
2 2 2 2 2 2 2 0 0 
0 0 0 0 0 0 0 0 0 
0 0 0 0 0 0 0 0 0 
0 0 0 0 0 0 0 0 0 
0 1 1 1 1 1 1 2 2 
2 1 1 1 1 2 2 2 2 
2 2 2 2 2 2 2 1 2 
2 2 2 2 2 1 1 1 1 
1 2 2 2 2 2 2 1 1 
1 2 2 1 1 1 1 1 1 
2 2 2 2 2 2 1 1 1 
1 1 1 2 2 2 2 2 2 
0 0 0 0 0 0 0 0 0 
0 0 0 0 0 0 0 0 0 
0 0 0 0 0 0 0 0 0 
0 1 1 1 1 1 1 2 2 
2 2 1 1 1 1 1 2 2 
2 2 2 1 1 1 1 1 1 
2 2 2 2 2 2 1 1 1 
1 1 2 2 2 2 2 2 2 
1 2 2 2 2 1 1 1 1 
1 2 2 2 2 2 2 1 1 
1 1 1 1 2 2 2 2 2 
2 2 0 0 0 0 0 0 0 
0 0 0 0 0 0 0 0 0 
0 0 0 0 0 0 0 0 0 
0 0 1 1 1 1 1 2 2 
2 2 2 1 1 1 1 1 2 
2 2 2 2 1 1 1 1 1 
1 1 2 2 1 1 1 1 2 
2 2 2 1 1 1 2 2 2 
2 1 2 2 2 2 2 1 1 
1 1 2 2 2 2 2 2 1 
1 1 1 1 1 2 2 2 2 
2 2 1 1 0 0 0 0 0 
0 0 0 0 0 0 0 0 0 
0 0 0 0 0 0 0 0 0 
0 0 0 1 1 1 1 1 2 
2 2 2 2 1 1 1 1 1 
1 2 2 2 2 1 1 1 1 
1 1 1 1 1 1 1 1 1 
2 2 2 2 1 1 1 1 2 
2 1 1 1 2 2 2 2 2 
1 1 2 2 2 2 2 2 2 
1 1 1 1 1 1 2 2 2 
2 2 1 1 1 1 0 0 0 
0 0 0 0 0 0 0 0 0 
0 0 0 0 0 0 0 0 0 
0 0 0 0 2 2 2 2 2 
2 2 2 2 2 2 2 2 2 
1 1 2 2 2 2 1 1 1 
1 1 1 1 2 1 1 1 1 
1 2 2 2 2 1 1 1 1 
1 1 1 1 1 1 2 2 2 
2 2 1 1 1 1 1 1 2 
2 2 1 1 1 1 1 2 2 
2 2 1 1 1 1 1 0 0 
0 0 0 0 0 0 0 0 0 
0 0 0 0 0 0 0 0 0 
0 0 0 0 0 2 2 2 2 
2 2 2 2 2 2 2 2 2 
2 2 2 2 2 2 2 2 1 
1 1 1 1 2 2 2 1 1 
1 1 2 2 2 2 1 1 1 
1 2 1 1 1 1 1 1 2 
2 2 1 1 1 1 1 1 2 
2 2 2 2 2 2 2 2 2 
2 2 1 1 1 1 1 1 0 
0 0 0 0 0 0 0 0 0 
0 0 0 0 0 0 0 0 0 
0 0 0 0 0 0 2 2 2 
2 2 2 1 1 1 1 2 2 
2 2 2 2 2 2 2 2 2 
2 2 2 2 2 2 2 2 2 
1 1 1 2 2 2 2 1 1 
1 2 2 2 1 1 1 1 1 
2 2 2 1 1 1 1 1 1 
2 2 2 2 2 2 2 2 2 
2 2 2 2 1 1 1 1 1 
0 0 0 0 0 0 0 0 0 
0 0 0 0 0 0 0 0 0 
0 0 0 0 0 0 0 2 2 
2 2 2 1 1 1 1 1 2 
2 2 2 2 1 2 2 2 2 
2 2 2 2 2 2 2 2 2 
2 2 1 1 2 2 2 2 2 
1 2 2 2 2 2 1 1 1 
1 2 2 2 2 1 1 1 1 
1 2 2 2 2 2 2 2 2 
2 2 2 2 2 2 1 1 1 
1 0 0 0 0 0 0 0 0 
0 0 0 0 0 0 0 0 0 
0 0 0 0 0 0 0 0 2 
2 2 2 1 1 1 1 1 1 
1 2 2 2 1 1 1 1 1 
1 2 2 2 2 2 1 1 2 
2 2 2 2 2 1 1 1 1 
1 1 2 2 2 2 2 2 1 
1 2 2 2 2 2 1 1 1 
1 1 2 2 2 2 2 2 2 
2 2 2 2 2 2 2 2 1 
1 1 0 0 0 0 0 0 0 
0 0 0 0 0 0 0 0 0 
0 0 0 0 0 0 0 0 0 
2 2 2 2 1 1 1 1 1 
1 1 1 2 1 1 1 1 1 
1 1 2 2 2 2 1 1 1 
2 2 2 2 2 2 1 1 1 
1 1 1 1 2 2 2 2 2 
2 2 2 2 2 2 2 1 2 
2 2 2 2 2 2 2 2 2 
2 2 1 1 2 2 2 2 2 
1 1 1 0 0 0 0 0 0 
0 0 0 0 0 0 0 0 0 
0 0 0 0 0 0 0 0 0 
0 2 2 2 2 2 1 1 1 
1 1 1 1 2 1 1 1 1 
1 1 1 2 2 2 1 1 1 
1 2 2 2 2 2 2 1 1 
1 1 1 1 1 1 2 2 2 
2 1 1 2 2 2 2 2 2 
2 2 2 2 1 1 1 1 1 
2 2 2 1 1 1 2 2 2 
1 1 1 1 0 0 0 0 0 
0 0 0 0 0 0 0 0 0 
0 0 0 0 0 0 0 0 0 
0 0 2 2 2 2 2 2 2 
2 2 1 1 2 2 2 2 1 
1 1 1 1 2 2 1 1 1 
1 1 2 1 1 1 1 1 2 
2 2 2 1 1 1 1 2 2 
2 2 1 1 1 1 1 1 1 
2 2 2 2 2 1 1 1 1 
1 1 2 1 1 1 1 1 2 
2 1 1 1 1 0 0 0 0 
0 0 0 0 0 0 0 0 0 
0 0 0 0 0 0 0 0 0 
0 0 0 2 2 2 2 2 2 
2 2 2 2 2 2 2 2 2 
2 1 1 2 2 2 1 1 1 
1 1 2 2 1 1 1 1 1 
2 2 2 2 2 1 1 2 2 
2 2 2 1 1 1 1 1 1 
1 2 2 2 2 2 1 1 1 
1 1 1 2 1 1 1 1 1 
1 1 1 1 1 1 0 0 0 
0 0 0 0 0 0 0 0 0 
0 0 0 0 0 0 0 0 0 
0 0 0 0 2 2 2 2 2 
2 2 2 2 2 2 2 2 2 
2 2 2 2 2 2 2 2 1 
1 1 2 2 2 2 1 1 1 
1 2 2 2 2 2 2 2 2 
2 2 2 2 2 1 1 1 1 
1 1 1 2 2 2 1 1 1 
1 1 1 2 2 2 1 1 1 
1 1 1 1 1 1 1 0 0 
0 0 0 0 0 0 0 0 0 
0 0 0 0 0 0 0 0 0 
0 0 0 0 0 2 2 2 2 
2 2 2 2 2 1 1 2 2 
2 2 2 1 1 2 2 2 2 
2 1 2 2 2 2 2 1 1 
1 1 2 2 2 2 1 1 1 
2 2 2 2 2 2 1 1 1 
1 1 1 1 2 2 2 1 1 
1 1 1 2 2 2 2 2 1 
1 1 2 2 1 1 1 1 0 
0 0 0 0 0 0 0 0 0 
0 0 0 0 0 0 0 0 0 
0 0 0 0 0 0 2 2 2 
2 2 2 2 2 1 1 1 1 
2 2 2 1 1 1 1 2 2 
2 2 2 2 2 2 2 2 1 
1 1 1 2 2 2 1 1 1 
1 1 2 2 1 1 1 2 2 
2 2 1 1 2 2 2 2 2 
1 1 1 1 2 2 2 2 2 
2 1 2 2 2 2 2 2 2 
0 0 0 0 0 0 0 0 0 
0 0 0 0 0 0 0 0 0 
0 0 0 0 0 0 0 2 2 
2 2 2 1 2 1 1 1 1 
1 1 2 1 1 1 1 1 1 
2 2 2 2 1 2 2 2 2 
2 2 2 2 2 1 1 1 1 
1 1 1 2 1 1 1 1 2 
2 2 2 2 2 2 2 2 2 
2 2 2 2 2 2 2 2 2 
2 2 1 1 2 2 2 2 2 
2 0 0 0 0 0 0 0 0 
0 0 0 0 0 0 0 0 0 
0 0 0 0 0 0 0 0 2 
2 2 2 1 1 2 2 1 1 
1 1 1 2 1 1 1 1 1 
1 2 2 2 1 1 1 1 1 
1 2 2 2 2 2 1 1 1 
1 1 1 2 2 1 1 1 1 
2 2 2 2 2 2 2 2 2 
2 2 2 2 2 2 2 2 2 
2 2 1 1 1 1 2 2 2 
2 2 0 0 0 0 0 0 0 
0 0 0 0 0 0 0 0 0 
0 0 0 0 0 0 0 0 0 
2 2 2 1 1 1 2 2 2 
1 1 1 2 2 2 1 1 1 
1 2 2 2 1 1 1 1 1 
1 1 2 2 2 2 2 1 1 
1 1 1 2 2 2 1 1 1 
1 2 2 2 2 2 1 2 2 
2 2 2 2 2 2 2 1 1 
2 2 1 1 1 1 1 1 2 
2 2 2 0 0 0 0 0 0 
0 0 0 0 0 0 0 0 0 
0 0 0 0 0 0 0 0 0 
0 1 1 1 1 1 1 2 2 
2 2 1 2 2 2 2 2 1 
1 2 2 2 2 2 1 1 1 
1 1 1 2 2 2 2 2 2 
2 1 1 2 2 2 2 1 1 
1 1 2 2 2 2 1 1 1 
1 1 2 2 2 2 2 1 1 
1 1 2 2 1 1 1 1 1 
1 2 2 2 0 0 0 0 0 
0 0 0 0 0 0 0 0 0 
0 0 0 0 0 0 0 0 0 
0 0 1 1 1 1 1 1 2 
2 2 2 2 2 2 2 2 2 
2 2 2 2 2 2 2 1 1 
1 1 2 2 2 2 2 2 2 
2 2 2 2 2 2 2 2 1 
1 1 1 1 2 2 1 1 1 
1 1 1 2 2 2 2 1 1 
1 1 1 2 2 2 1 1 1 
1 2 2 2 2 0 0 0 0 
0 0 0 0 0 0 0 0 0 
0 0 0 0 0 0 0 0 0 
0 0 0 1 1 1 1 1 1 
2 2 2 2 2 2 2 2 2 
2 1 1 2 2 2 2 2 1 
1 1 2 2 2 2 2 2 2 
2 2 2 2 1 2 2 2 2 
2 2 2 2 2 2 1 1 1 
1 1 1 1 2 2 2 1 1 
1 1 1 1 2 2 2 2 1 
1 2 2 2 2 2 0 0 0 
0 0 0 0 0 0 0 0 0 
0 0 0 0 0 0 0 0 0 
0 0 0 0 1 1 1 1 1 
1 2 2 2 2 1 1 2 2 
2 1 1 1 1 2 2 2 2 
1 1 2 2 2 2 2 2 2 
2 2 2 2 1 1 1 1 1 
1 2 2 2 2 2 2 1 1 
1 1 1 1 2 2 2 2 1 
1 1 1 1 1 2 2 2 2 
2 2 2 2 2 2 2 0 0 
0 0 0 0 0 0 0 0 0 
0 0 0 0 0 0 0 0 0 
0 0 0 0 0 2 2 2 2 
2 2 1 1 1 1 1 1 1 
2 1 1 1 1 1 1 1 2 
2 2 1 2 2 2 2 2 2 
2 2 2 2 1 1 1 1 1 
1 1 2 2 2 2 2 2 1 
1 1 1 1 2 2 2 2 2 
1 1 1 1 1 1 2 2 2 
2 1 1 2 2 2 2 2 0 
0 0 0 0 0 0 0 0 0 
0 0 0 0 0 0 0 0 0 
0 0 0 0 0 0 2 2 2 
2 2 2 1 1 1 1 1 1 
1 2 1 1 1 1 1 1 2 
2 2 2 2 2 2 2 2 2 
2 2 2 2 1 1 1 1 1 
1 1 1 2 2 2 2 2 2 
2 2 2 2 2 2 2 2 2 
2 1 1 1 1 2 2 2 2 
2 1 1 1 1 2 2 2 2 
0 0 0 0 0 0 0 0 0 
0 0 0 0 0 0 0 0 0 
0 0 0 0 0 0 0 2 2 
2 2 2 2 1 1 1 1 1 
1 2 2 2 1 1 1 1 2 
2 2 2 2 2 1 1 1 1 
2 2 2 2 2 2 1 1 1 
1 1 1 1 2 2 2 2 2 
1 2 2 2 2 2 2 2 2 
2 2 2 2 2 2 2 2 2 
1 1 1 1 1 1 1 2 2 
2 0 0 0 0 0 0 0 0 
0 0 0 0 0 0 0 0 0 
0 0 0 0 0 0 0 0 2 
2 2 2 2 2 1 1 1 1 
1 2 2 2 2 2 1 1 2 
2 2 2 2 2 2 1 1 1 
1 2 2 2 2 2 2 2 1 
1 2 2 2 2 1 1 1 1 
1 1 2 2 2 2 1 1 1 
1 2 2 2 2 2 2 2 2 
2 1 1 1 1 1 1 2 2 
2 2 0 0 0 0 0 0 0 
0 0 0 0 0 0 0 0 0 
0 0 0 0 0 0 0 0 0 
2 2 2 2 2 2 1 1 1 
1 1 2 2 2 2 2 2 1 
1 1 2 2 2 2 1 1 1 
1 1 2 2 2 2 2 2 2 
2 2 2 2 2 2 1 1 1 
1 1 1 2 2 2 2 1 1 
1 1 2 2 2 2 2 2 2 
2 2 1 1 1 1 1 2 2 
2 2 2 0 0 0 0 0 0 
0 0 0 0 0 0 0 0 0 
0 0 0 0 0 0 0 0 0 
0 1 1 1 1 1 1 2 2 
2 2 2 2 2 2 2 2 2 
1 1 1 1 2 2 1 1 1 
1 1 1 2 2 1 1 1 1 
1 2 2 2 2 2 2 1 1 
1 1 1 1 2 2 2 1 1 
1 1 1 2 2 2 2 2 2 
2 2 2 1 1 1 1 1 2 
2 2 2 2 0 0 0 0 0 
0 0 0 0 0 0 0 0 0 
0 0 0 0 0 0 0 0 0 
0 0 1 1 1 1 1 1 2 
2 2 2 2 1 1 1 2 2 
1 1 1 1 1 1 1 1 1 
1 1 2 2 2 1 1 1 1 
1 1 2 2 2 2 2 2 1 
1 1 1 1 1 2 2 1 1 
1 1 1 1 2 2 2 2 1 
1 2 2 2 2 2 2 2 2 
2 2 2 2 2 0 0 0 0 
0 0 0 0 0 0 0 0 0 
0 0 0 0 0 0 0 0 0 
0 0 0 1 1 1 1 1 1 
2 2 2 2 2 1 1 1 1 
2 1 1 1 1 1 2 2 1 
1 1 2 2 2 2 1 1 1 
1 1 1 2 2 2 2 2 2 
2 2 2 2 2 2 2 1 1 
1 1 1 1 1 2 2 2 1 
1 1 1 1 2 2 2 2 2 
2 1 1 2 2 2 0 0 0 
0 0 0 0 0 0 0 0 0 
0 0 0 0 0 0 0 0 0 
0 0 0 0 1 1 1 1 1 
1 2 2 2 2 2 1 1 1 
1 1 1 1 1 1 2 2 2 
2 1 2 2 2 2 2 1 1 
1 1 1 2 2 1 1 1 1 
1 2 2 2 2 2 2 2 1 
1 1 1 1 1 2 2 2 2 
1 1 1 1 1 2 2 2 2 
2 2 1 1 1 1 1 0 0 
0 0 0 0 0 0 0 0 0 
0 0 0 0 0 0 0 0 0 
0 0 0 0 0 1 1 1 1 
1 1 1 2 2 2 2 1 1 
1 1 1 2 2 2 2 2 2 
2 2 1 2 2 2 2 2 2 
1 1 1 2 2 2 1 1 1 
1 1 2 2 2 2 2 2 2 
2 2 2 2 2 2 2 2 2 
2 1 1 1 1 1 2 2 2 
2 2 1 1 1 1 1 1 0 
0 0 0 0 0 0 0 0 0 
0 0 0 0 0 0 0 0 0 
0 0 0 0 0 0 2 2 2 
2 1 1 1 1 1 2 2 1 
1 1 1 2 2 2 2 2 2 
2 2 1 1 1 2 2 2 2 
2 1 2 2 2 2 2 1 1 
1 1 1 2 2 2 2 1 1 
1 2 2 2 2 2 2 2 2 
2 2 1 1 1 1 1 1 2 
2 2 1 1 1 1 1 1 1 
0 0 0 0 0 0 0 0 0 
0 0 0 0 0 0 0 0 0 
0 0 0 0 0 0 0 2 2 
2 2 1 1 1 1 1 1 2 
2 1 1 2 2 2 2 2 2 
2 2 1 1 1 1 1 2 2 
2 2 2 2 2 2 2 2 1 
1 1 1 1 1 2 1 1 1 
1 1 2 2 2 2 2 2 2 
2 2 2 1 1 1 1 1 1 
2 2 2 1 1 1 1 1 1 
1 0 0 0 0 0 0 0 0 
0 0 0 0 0 0 0 0 0 
0 0 0 0 0 0 0 0 2 
2 2 2 2 1 1 1 1 1 
1 1 1 1 2 2 1 1 1 
1 1 1 1 1 1 1 1 1 
2 2 1 1 2 2 2 2 2 
1 1 1 1 1 2 2 1 1 
1 1 1 1 2 2 2 2 1 
2 2 2 2 2 2 2 1 1 
2 2 2 2 2 1 1 2 2 
2 2 0 0 0 0 0 0 0 
0 0 0 0 0 0 0 0 0 
0 0 0 0 0 0 0 0 0 
2 2 2 2 2 2 1 1 1 
1 1 1 1 1 1 1 1 1 
1 1 1 2 2 1 1 1 1 
1 2 1 1 1 1 2 2 2 
2 2 2 1 1 2 2 2 2 
1 1 1 1 1 2 2 2 1 
1 1 1 2 2 2 2 2 2 
2 2 2 2 2 2 2 2 2 
2 2 2 0 0 0 0 0 0 
0 0 0 0 0 0 0 0 0 
0 0 0 0 0 0 0 0 0 
0 2 2 2 2 2 2 1 1 
1 1 1 1 1 1 1 1 1 
1 1 1 2 2 2 1 1 1 
1 2 2 2 1 1 1 1 1 
2 2 2 2 2 2 2 2 2 
2 1 1 1 2 2 2 1 1 
1 1 1 1 2 2 2 2 2 
1 1 2 2 2 2 2 2 2 
2 2 2 2 0 0 0 0 0 
0 0 0 0 0 0 0 0 0 
0 0 0 0 0 0 0 0 0 
0 0 2 2 2 2 2 1 1 
1 1 1 1 1 1 1 1 1 
1 1 1 2 2 2 2 2 1 
2 2 2 2 2 1 1 1 1 
1 2 2 2 2 2 2 2 2 
2 2 2 1 2 2 2 2 1 
1 1 1 1 1 2 2 2 2 
1 1 1 1 2 2 2 2 1 
1 2 2 2 2 0 0 0 0 
0 0 0 0 0 0 0 0 0 
0 0 0 0 0 0 0 0 0 
0 0 0 1 1 1 1 2 1 
1 1 1 1 1 1 1 2 2 
2 1 1 2 2 2 2 2 2 
1 2 2 2 2 2 1 1 1 
1 1 2 2 2 2 1 1 2 
2 2 2 2 2 2 2 2 2 
1 1 1 1 1 1 2 2 2 
1 1 1 1 1 1 2 1 1 
1 1 1 2 2 2 0 0 0 
0 0 0 0 0 0 0 0 0 
0 0 0 0 0 0 0 0 0 
0 0 0 0 1 1 1 1 1 
1 1 1 1 1 2 2 2 2 
2 2 1 1 2 2 2 2 2 
1 1 1 2 2 2 2 1 1 
1 1 1 2 2 2 1 1 1 
1 2 2 2 1 2 2 2 2 
2 1 1 1 1 1 1 2 2 
1 1 1 1 1 1 1 2 1 
1 1 1 1 1 2 2 0 0 
0 0 0 0 0 0 0 0 0 
0 0 0 0 0 0 0 0 0 
0 0 0 0 0 1 1 1 1 
1 2 1 1 1 1 2 2 2 
2 2 1 1 1 1 2 2 2 
1 1 1 1 2 2 2 2 1 
1 1 1 1 2 2 1 1 1 
1 1 1 2 1 1 1 2 2 
2 2 1 1 1 1 1 2 2 
2 2 1 1 1 1 1 2 2 
2 1 1 1 1 1 1 0 0 
0 0 0 0 0 0 0 0 0 
0 0 0 0 0 0 0 0 0 
0 0 0 0 0 0 1 1 1 
1 1 2 2 1 1 1 2 2 
2 2 2 1 1 1 1 1 2 
2 1 1 1 1 2 2 2 2 
2 2 2 2 2 2 2 2 1 
1 1 1 1 2 1 1 1 1 
2 2 2 2 2 2 2 2 2 
2 2 2 2 1 1 2 2 2 
2 2 2 1 1 1 1 1 0 
0 0 0 0 0 0 0 0 0 
0 0 0 0 0 0 0 0 0 
0 0 0 0 0 0 0 1 1 
1 1 1 2 2 2 2 2 2 
2 2 2 2 1 1 1 1 1 
1 1 1 1 1 1 2 1 1 
1 2 2 2 2 2 2 2 2 
2 1 1 1 2 2 2 1 1 
1 1 2 2 2 2 2 2 2 
2 2 2 2 2 2 2 2 2 
2 2 2 2 2 1 1 1 0 
0 0 0 0 0 0 0 0 0 
0 0 0 0 0 0 0 0 0 
0 0 0 0 0 0 0 0 0 
1 1 1 2 2 2 2 2 2 
1 1 2 2 2 1 1 1 1 
1 2 2 1 1 1 1 1 1 
1 1 2 2 2 2 2 2 2 
2 2 1 2 2 2 2 2 1 
1 1 1 2 2 2 2 2 2 
2 2 2 2 2 2 1 1 2 
2 2 2 2 1 1 1 1 0 
0 0 0 0 0 0 0 0 0 
0 0 0 0 0 0 0 0 0 
0 0 0 0 0 0 0 0 0 
0 0 1 2 2 2 2 2 2 
2 1 1 1 2 2 2 1 1 
1 2 2 2 2 2 2 2 1 
1 1 1 2 2 2 2 2 2 
2 2 2 2 2 2 2 2 2 
1 1 1 1 2 2 2 2 2 
1 1 2 2 2 2 1 1 1 
1 2 2 2 1 1 1 1 1 
0 0 0 0 0 0 0 0 0 
0 0 0 0 0 0 0 0 0 
0 0 0 0 0 0 0 0 0 
0 0 0 0 2 2 2 2 2 
2 2 1 1 1 1 2 2 1 
1 1 2 2 2 2 2 2 2 
1 1 1 1 2 2 2 1 1 
1 1 1 1 2 2 2 2 2 
2 1 1 1 1 2 2 2 2 
1 1 1 2 2 2 2 1 1 
1 1 1 2 1 1 1 1 1 
1 0 0 0 0 0 0 0 0 
0 0 0 0 0 0 0 0 0 
0 0 0 0 0 0 0 0 0 
0 0 0 0 0 0 1 1 1 
1 1 1 1 1 1 1 1 1 
1 1 1 1 2 2 2 2 2 
2 1 1 1 1 1 2 1 1 
1 1 1 1 1 2 2 2 2 
2 2 1 1 1 1 2 2 2 
1 1 1 1 2 2 2 2 1 
1 1 1 1 2 1 1 1 1 
1 0 0 0 0 0 0 0 0 
0 0 0 0 0 0 0 0 0 
0 0 0 0 0 0 0 0 0 
0 0 0 0 0 0 0 0 1 
1 1 1 1 1 1 1 1 1 
1 1 1 1 1 1 2 2 2 
2 2 1 1 1 1 2 2 1 
1 1 1 1 1 2 2 1 1 
1 1 1 2 2 2 2 2 1 
1 1 1 1 1 2 2 2 2 
1 1 1 1 2 2 2 1 1 
1 0 0 0 0 0 0 0 0 
0 0 0 0 0 0 0 0 0 
0 0 0 0 0 0 0 0 0 
0 0 0 0 0 0 0 0 0 
0 1 1 1 1 1 1 1 1 
2 2 1 1 1 1 1 2 2 
2 2 2 2 2 2 2 2 2 
1 1 1 1 1 2 2 2 1 
1 1 1 1 2 2 2 2 2 
1 1 1 1 1 1 2 2 2 
2 1 1 1 2 2 2 2 2 
1 0 0 0 0 0 0 0 0 
0 0 0 0 0 0 0 0 0 
0 0 0 0 0 0 0 0 0 
0 0 0 0 0 0 0 0 0 
0 0 0 1 1 1 1 1 1 
1 2 2 2 1 1 1 2 2 
2 1 1 1 2 2 2 2 2 
2 1 1 1 1 2 2 2 2 
2 1 1 1 1 2 2 2 2 
2 1 1 1 1 1 1 1 2 
2 2 1 1 1 2 2 2 2 
2 0 0 0 0 0 0 0 0 
0 0 0 0 0 0 0 0 0 
0 0 0 0 0 0 0 0 0 
0 0 0 0 0 0 0 0 0 
0 0 0 0 0 1 1 1 1 
1 1 2 2 2 2 1 2 2 
2 2 1 1 1 1 2 2 2 
2 2 2 1 1 1 2 2 2 
2 2 1 1 1 1 2 2 2 
2 2 2 2 2 2 2 1 1 
2 2 2 1 1 2 2 2 2 
2 0 0 0 0 0 0 0 0 
0 0 0 0 0 0 0 0 0 
0 0 0 0 0 0 0 0 0 
0 0 0 0 0 0 0 0 0 
0 0 0 0 0 0 0 1 1 
1 1 1 2 2 2 2 2 2 
2 2 2 1 1 1 1 1 2 
2 2 2 2 2 2 2 2 2 
2 2 2 1 1 1 1 2 2 
2 2 2 2 2 2 2 2 2 
2 2 2 2 2 2 2 2 2 
2 0 0 0 0 0 0 0 0 
0 0 0 0 0 0 0 0 0 
0 0 0 0 0 0 0 0 0 
0 0 0 0 0 0 0 0 0 
0 0 0 0 0 0 0 0 0 
1 1 1 1 2 2 2 2 2 
2 2 2 2 1 1 1 1 1 
2 1 1 1 1 2 2 2 2 
2 2 2 2 1 1 1 1 2 
2 2 2 1 2 2 2 2 2 
2 2 2 2 2 2 2 2 2 
2 0 0 0 0 0 0 0 0 
0 0 0 0 0 0 0 0 0 
0 0 0 0 0 0 0 0 0 
0 0 0 0 0 0 0 0 0 
0 0 0 0 0 0 0 0 0 
0 0 1 1 1 2 2 2 2 
2 2 2 2 2 1 1 1 1 
1 2 1 1 1 1 2 2 2 
2 1 1 1 1 2 2 2 2 
2 1 1 1 1 1 2 2 2 
2 2 2 2 2 2 2 2 2 
0 0 0 0 0 0 0 0 0 
0 0 0 0 0 0 0 0 0 
0 0 0 0 0 0 0 0 0 
0 0 0 0 0 0 0 0 0 
0 0 0 0 0 0 0 0 0 
0 0 0 0 1 1 2 2 2 
2 2 2 2 2 2 1 1 1 
1 2 2 2 1 1 1 1 2 
2 2 1 1 1 1 2 2 2 
2 2 1 1 1 1 1 1 2 
2 2 2 2 2 2 2 2 2 
0 0 0 0 0 0 0 0 0 
0 0 0 0 0 0 0 0 0 
0 0 0 0 0 0 0 0 0 
0 0 0 0 0 0 0 0 0 
0 0 0 0 0 0 0 0 0 
0 0 0 0 0 0 0 2 2 
2 2 2 2 2 2 2 2 1 
1 2 2 2 2 1 1 1 1 
2 2 2 1 1 1 1 2 2 
2 2 2 1 1 1 1 1 1 
2 2 2 2 2 2 2 2 2 
0 0 0 0 0 0 0 0 0 
0 0 0 0 0 0 0 0 0 
0 0 0 0 0 0 0 0 0 
0 0 0 0 0 0 0 0 0 
0 0 0 0 0 0 0 0 0 
0 0 0 0 0 0 0 0 0 
0 0 0 2 2 2 2 2 2 
2 2 2 2 2 2 1 1 1 
1 2 2 2 1 1 1 1 2 
2 2 2 2 1 1 1 1 1 
2 2 2 2 2 2 0 0 0 
0 0 0 0 0 0 0 0 0 
0 0 0 0 0 0 0 0 0 
0 0 0 0 0 0 0 0 0 
0 0 0 0 0 0 0 0 0 
0 0 0 0 0 0 0 0 0 
0 0 0 0 0 0 0 0 0 
0 0 0 0 0 2 2 2 2 
2 2 2 2 2 2 2 1 1 
1 1 2 2 2 1 1 1 1 
1 2 2 2 2 1 1 1 1 
1 2 2 2 2 2 0 0 0 
0 0 0 0 0 0 0 0 0 
0 0 0 0 0 0 0 0 0 
0 0 0 0 0 0 0 0 0 
0 0 0 0 0 0 0 0 0 
0 0 0 0 0 0 0 0 0 
0 0 0 0 0 0 0 0 0 
0 0 0 0 0 0 0 2 2 
2 2 2 2 2 2 2 2 1 
1 1 1 2 2 2 1 1 1 
1 1 2 2 2 2 1 1 1 
1 1 2 2 2 2 0 0 0 
0 0 0 0 0 0 0 0 0 
0 0 0 0 0 0 0 0 0 
0 0 0 0 0 0 0 0 0 
0 0 0 0 0 0 0 0 0 
0 0 0 0 0 0 0 0 0 
0 0 0 0 0 0 0 0 0 
0 0 0 0 0 0 0 0 0 
0 0 0 0 0 0 0 0 0 
0 0 0 0 0 0 0 0 0 
0 0 0 0 0 0 0 0 0 
0 0 0 0 0 0 0 0 0 
0 0 0 0 0 0 0 0 0 
0 0 0 0 0 0 0 0 0 
0 0 0 0 0 0 0 0 0 
0 0 0 0 0 0 0 0 0 
0 0 0 0 0 0 0 0 0 
0 0 0 0 0 0 0 0 0 
0 0 0 0 0 0 0 0 0 
0 0 0 0 0 0 0 0 0 
0 0 0 0 0 0 0 0 0 
0 0 0 0 0 0 0 0 0 
0 0 0 0 0 0 0 0 0 
0 0 0 0 0 0 0 0 0 
0 0 0 0 0 0 0 0 0 
0 0 0 0 0 0 0 0 0 
0 0 0 0 0 0 0 0 0 
0 0 0 0 0 0 0 0 0 
0 0 0 0 0 0 0 0 0 
0 0 0 0 0 0 0 0 0 
0 0 0 0 0 0 0 0 0 
0 0 0 0 0 0 0 0 0 
0 0 0 0 0 0 0 0 0 
0 0 0 0 0 0 0 0 0 
0 0 0 0 0 0 0 0 0 
0 0 0 0 0 0 0 0 0 
0 0 0 0 0 0 0 0 0 
0 0 0 0 0 0 0 0 0 
0 0 0 0 0 0 0 0 0 
0 0 0 0 0 0 0 0 0 
0 0 0 0 0 0 0 0 0 
0 0 0 0 0 0 0 0 0 
0 0 0 0 0 0 0 0 0 
0 0 0 0 0 0 0 0 0 
0 0 0 0 0 0 0 0 0 
0 0 0 0 0 0 0 0 0 
0 0 0 0 0 0 0 0 0 
0 0 0 0 0 0 0 0 0 
0 0 0 0 0 0 0 0 0 
0 0 0 0 0 0 0 0 0 
0 0 0 0 0 0 0 0 0 
0 0 0 0 0 0 0 0 0 
0 0 0 0 0 0 0 0 0 
0 0 0 0 0 0 0 0 0 
0 0 0 0 0 0 0 0 0 
0 0 0 0 0 0 0 0 0 
0 0 0 0 0 0 0 0 0 
0 0 0 0 0 0 0 0 0 
0 0 0 0 0 0 0 0 0 
0 0 0 0 0 0 0 0 0 
0 0 0 0 0 0 0 0 0 
0 0 0 0 0 0 0 0 0 
0 0 0 0 0 0 0 0 0 
0 0 0 0 0 0 0 0 0 
0 0 0 0 0 0 0 0 0 
0 0 0 0 0 0 0 0 0 
0 0 0 0 0 0 0 0 0 
0 0 0 0 0 0 0 0 0 
0 0 0 0 0 0 0 0 0 
0 0 0 0 0 0 0 0 0 
0 0 0 0 0 0 0 0 0 
0 0 0 0 0 0 0 0 0 
0 0 0 0 0 0 0 0 0 
0 0 0 0 0 0 0 0 0 
0 0 0 0 0 0 0 0 0 
0 0 0 0 0 0 0 0 0 
0 0 0 0 0 0 0 0 0 
0 0 0 0 0 0 0 0 0 
0 0 0 0 0 0 0 0 0 
0 0 0 0 0 0 0 0 0 
0 0 0 0 0 0 0 0 0 
0 0 0 0 0 0 0 0 0 
0 0 0 0 0 0 0 0 0 
0 0 0 0 0 0 0 0 0 
0 0 0 0 0 0 0 0 0 
0 0 0 0 0 0 0 0 0 
0 0 0 0 0 0 0 0 0 
0 0 0 0 0 0 0 0 0 
0 0 0 0 0 0 0 0 0 
0 0 0 0 0 0 0 0 0 
0 0 0 0 0 0 0 0 0 
0 0 0 0 0 0 0 0 0 
0 0 0 0 0 0 0 0 0 
0 0 0 0 0 0 0 0 0 
0 0 0 0 0 0 0 0 0 
0 0 0 0 0 0 0 0 0 
0 0 0 0 0 0 0 0 0 
0 0 0 0 0 0 0 0 0 
0 0 0 0 0 0 0 0 0 
0 0 0 0 0 0 0 0 0 
0 0 0 0 0 0 0 0 0 
0 0 0 0 0 0 0 0 0 
0 0 0 0 0 0 0 0 0 
0 0 0 0 0 0 0 0 0 
0 0 0 0 0 0 0 0 0 
0 0 0 0 0 0 0 0 0 
0 0 0 0 0 0 0 0 0 
0 0 0 0 0 0 0 0 0 
0 0 0 0 0 0 0 0 0 
0 0 0 0 0 0 0 0 0 
0 0 0 0 0 0 0 0 0 
0 0 0 0 0 0 0 0 0 
0 0 0 0 0 0 0 0 0 
0 0 0 0 0 0 0 0 0 
0 0 0 0 0 0 0 0 0 
0 
CellId 1 10000 long
0 0 0 0 0 0 0 0 0 
0 0 0 0 0 0 0 0 0 
0 0 0 0 0 0 0 0 0 
0 0 0 0 0 0 0 0 0 
0 0 0 0 0 0 0 0 0 
0 0 0 0 0 0 0 0 0 
0 0 0 0 0 0 0 0 0 
0 0 0 0 0 0 0 0 0 
0 0 0 0 0 0 0 0 0 
0 0 0 0 0 0 0 0 0 
0 0 0 0 0 0 0 0 0 
0 0 0 0 0 0 0 0 0 
0 0 0 0 0 0 0 0 0 
0 0 0 0 0 0 0 0 0 
0 0 0 0 0 0 0 0 0 
0 0 0 0 0 0 0 0 0 
0 0 0 0 0 0 0 0 0 
0 0 0 0 0 0 0 0 0 
0 0 0 0 0 0 0 0 0 
0 0 0 0 0 0 0 0 0 
0 0 0 0 0 0 0 0 0 
0 0 0 0 0 0 0 0 0 
0 0 0 0 0 0 0 0 0 
0 0 0 0 0 0 0 0 0 
0 0 0 0 0 0 0 0 0 
0 0 0 0 0 0 0 0 0 
0 0 0 0 0 0 0 0 0 
0 0 0 0 0 0 0 0 0 
0 0 0 0 0 0 0 0 0 
0 0 0 0 0 0 0 0 0 
0 0 0 0 0 0 0 0 0 
0 0 0 0 0 0 0 0 0 
0 0 0 0 0 0 0 0 0 
0 0 0 0 0 0 0 0 0 
0 0 0 0 0 0 0 0 0 
0 0 0 0 0 0 0 0 0 
0 0 0 0 0 0 0 0 0 
0 0 0 0 0 0 0 0 0 
0 0 0 0 0 0 0 0 0 
0 0 0 0 0 0 0 0 0 
0 0 0 0 0 0 0 0 0 
0 0 0 0 0 0 0 0 0 
0 0 0 0 0 0 0 0 0 
0 0 0 0 0 0 0 0 0 
0 0 0 0 0 0 0 0 0 
0 0 0 0 0 0 0 0 0 
0 0 0 0 0 0 0 0 0 
0 0 0 0 0 0 0 0 0 
0 0 0 0 0 0 0 0 0 
0 0 0 0 0 0 0 0 0 
0 0 0 0 0 0 0 0 0 
0 0 0 0 0 0 0 0 0 
0 0 0 0 0 0 0 0 0 
0 0 0 0 0 0 0 0 0 
0 0 0 0 0 0 0 0 0 
0 0 0 0 0 0 0 0 0 
0 0 0 0 0 0 0 0 0 
0 0 0 0 0 0 0 0 0 
0 0 0 0 0 0 0 0 0 
0 0 0 0 0 0 0 0 0 
0 0 0 0 0 0 0 0 0 
0 0 0 0 0 0 0 0 0 
0 0 0 0 0 0 0 0 0 
0 0 0 0 0 0 0 0 0 
0 0 0 0 0 0 0 0 0 
0 0 0 0 0 0 0 0 0 
0 0 0 0 0 0 0 0 0 
0 0 0 0 0 0 0 0 0 
0 0 0 0 0 0 0 0 0 
0 0 0 0 0 0 0 0 0 
0 0 0 0 0 0 0 0 0 
0 0 0 0 0 0 0 0 0 
0 0 0 0 0 0 0 0 0 
0 0 0 0 0 0 0 0 0 
0 0 0 0 0 0 0 0 0 
0 0 0 0 0 0 0 0 0 
0 0 0 0 0 0 0 0 0 
0 0 0 0 0 0 0 0 0 
0 0 0 0 0 0 0 0 0 
0 0 0 0 0 0 0 0 0 
0 0 0 0 0 0 0 0 0 
0 0 0 0 0 0 0 0 0 
0 0 0 0 0 0 0 0 0 
0 0 0 0 0 0 0 0 0 
0 0 0 0 0 0 0 0 0 
0 0 0 0 0 0 0 0 0 
0 0 0 0 0 0 0 0 0 
0 0 0 0 0 0 0 0 0 
0 0 0 0 0 0 0 0 0 
0 0 0 0 0 0 0 0 0 
0 0 0 0 0 0 0 0 0 
0 0 0 0 0 0 0 0 0 
0 0 0 0 0 0 0 0 0 
0 0 0 0 0 0 0 0 0 
0 0 0 0 0 0 0 0 0 
0 0 0 0 0 0 0 0 0 
0 0 0 0 0 0 0 0 0 
0 0 0 0 0 0 0 0 0 
0 0 0 0 0 0 0 0 0 
0 0 0 0 0 0 0 0 0 
0 0 0 0 0 0 0 0 0 
0 0 0 0 0 0 0 0 0 
0 0 0 0 0 0 0 0 0 
0 0 0 0 0 0 0 0 0 
0 0 0 0 0 0 0 0 0 
0 0 0 0 0 0 0 0 0 
0 0 0 0 0 0 0 0 0 
0 0 0 0 0 0 0 0 0 
0 0 0 0 0 0 0 0 0 
0 0 0 0 0 0 0 0 0 
0 0 0 0 0 0 0 0 0 
0 0 0 0 0 0 0 0 0 
0 0 0 0 0 0 0 0 0 
0 0 0 0 0 0 0 0 0 
0 0 0 0 0 0 0 0 0 
0 0 0 0 0 0 0 0 0 
0 0 0 0 0 0 0 0 0 
0 0 0 0 0 0 0 0 0 
0 0 0 0 0 0 0 0 0 
0 0 0 0 0 0 0 0 0 
0 0 0 0 0 0 0 0 0 
0 0 0 0 0 0 0 0 0 
0 0 0 0 0 0 0 0 0 
0 0 0 0 0 0 0 0 0 
0 0 0 0 0 0 0 0 0 
0 0 0 0 0 0 0 0 0 
0 0 0 0 0 0 0 0 0 
0 0 0 0 0 0 0 0 0 
0 0 0 0 0 0 0 0 0 
0 0 0 0 0 0 0 0 0 
0 0 0 0 0 0 0 0 0 
0 0 0 0 0 0 0 0 0 
0 0 0 0 0 0 0 0 0 
0 0 0 0 0 0 0 0 0 
0 0 0 0 0 0 0 0 0 
0 0 0 0 0 0 0 0 0 
0 0 0 0 0 0 0 0 0 
0 0 0 0 0 0 0 0 0 
0 0 0 0 0 0 0 0 0 
0 0 0 0 0 0 0 0 0 
0 0 0 0 0 0 0 0 0 
0 0 0 0 0 0 0 0 0 
0 0 0 0 0 0 0 0 0 
0 0 0 0 0 0 0 0 0 
0 0 0 0 0 0 0 0 0 
0 0 0 0 0 0 0 0 0 
0 0 0 0 0 0 0 0 0 
0 0 0 0 0 0 0 0 0 
0 0 0 0 0 0 0 0 0 
0 0 0 0 0 0 0 0 0 
0 0 0 0 0 0 0 0 0 
0 0 0 0 0 0 0 0 0 
0 0 0 0 0 0 0 0 0 
0 0 0 0 0 0 0 0 0 
0 0 0 0 0 0 0 0 0 
0 0 0 0 0 0 0 0 0 
0 0 0 0 0 0 0 0 0 
0 0 0 0 0 0 0 0 0 
0 0 0 0 0 0 0 0 0 
0 0 0 0 0 0 0 0 0 
0 0 0 0 0 0 0 0 0 
0 0 0 0 0 0 0 0 0 
0 0 0 0 0 0 0 0 0 
0 0 0 0 0 0 0 0 0 
0 0 0 0 0 0 0 0 0 
0 0 0 0 0 0 0 0 0 
0 0 0 0 0 0 0 0 0 
0 0 0 0 0 0 0 0 0 
0 0 0 0 0 0 0 0 0 
0 0 0 0 0 0 0 0 0 
0 0 0 1 1 1 1 1 1 
2 2 2 2 2 2 3 3 3 
3 3 4 4 4 4 4 5 5 
5 5 5 5 5 6 6 6 7 
7 7 7 7 7 7 0 0 0 
0 0 0 0 0 0 0 0 0 
0 0 0 0 0 0 0 0 0 
0 0 0 0 0 0 0 0 0 
0 0 0 0 0 0 0 0 0 
0 0 0 0 0 0 0 0 0 
0 0 0 0 0 0 0 0 0 
0 0 0 1 1 1 1 1 1 
1 2 2 2 2 2 2 3 3 
3 3 3 4 4 4 4 4 5 
5 5 5 5 5 5 6 6 6 
7 7 7 7 7 7 7 17 17 
0 0 0 0 0 0 0 0 0 
0 0 0 0 0 0 0 0 0 
0 0 0 0 0 0 0 0 0 
0 0 0 0 0 0 0 0 0 
0 0 0 0 0 0 0 0 0 
0 0 0 0 0 0 0 0 0 
0 0 8 8 1 1 1 1 1 
1 1 2 2 2 2 2 2 3 
3 3 3 3 4 4 4 4 4 
5 5 5 5 5 5 6 6 6 
6 7 7 7 7 7 7 17 17 
17 17 0 0 0 0 0 0 0 
0 0 0 0 0 0 0 0 0 
0 0 0 0 0 0 0 0 0 
0 0 0 0 0 0 0 0 0 
0 0 0 0 0 0 0 0 0 
0 0 0 0 0 0 0 0 0 
0 0 8 8 8 8 1 1 1 
1 1 11 11 2 2 2 2 2 
3 3 3 3 3 4 4 4 4 
4 4 5 5 5 5 6 6 6 
6 6 6 7 7 7 7 17 17 
17 17 17 17 0 0 0 0 0 
0 0 0 0 0 0 0 0 0 
0 0 0 0 0 0 0 0 0 
0 0 0 0 0 0 0 0 0 
0 0 0 0 0 0 0 0 0 
0 0 0 0 0 0 0 0 0 
0 9 9 8 8 8 8 8 1 
1 1 11 11 11 11 11 11 11 
11 3 3 3 3 13 13 4 4 
4 4 4 5 5 5 6 6 6 
6 6 6 6 7 7 7 17 17 
17 17 17 17 17 30 0 0 0 
0 0 0 0 0 0 0 0 0 
0 0 0 0 0 0 0 0 0 
0 0 0 0 0 0 0 0 0 
0 0 0 0 0 0 0 0 0 
0 0 0 0 0 0 0 0 0 
0 9 9 9 8 8 8 8 8 
10 10 10 11 11 11 11 11 11 
11 11 3 3 3 13 13 13 13 
4 4 4 14 14 14 14 6 6 
6 6 6 6 6 16 16 16 16 
17 17 17 17 17 30 30 18 18 
0 0 0 0 0 0 0 0 0 
0 0 0 0 0 0 0 0 0 
0 0 0 0 0 0 0 0 0 
0 0 0 0 0 0 0 0 0 
0 0 0 0 0 0 0 0 0 
0 9 9 9 9 8 8 8 8 
10 10 10 10 10 11 11 11 11 
11 11 11 12 12 13 13 13 13 
13 13 4 14 14 14 14 14 14 
15 15 15 15 15 16 16 16 16 
16 16 17 17 17 30 30 30 18 
18 18 0 0 0 0 0 0 0 
0 0 0 0 0 0 0 0 0 
0 0 0 0 0 0 0 0 0 
0 0 0 0 0 0 0 0 0 
0 0 0 0 0 0 0 0 0 
0 9 9 9 9 9 8 8 8 
8 10 10 10 10 10 10 11 11 
11 11 11 12 12 12 13 13 13 
13 13 13 25 14 14 14 14 14 
14 15 15 15 15 15 16 16 16 
16 16 16 16 17 30 30 30 30 
18 18 18 18 0 0 0 0 0 
0 0 0 0 0 0 0 0 0 
0 0 0 0 0 0 0 0 0 
0 0 0 0 0 0 0 0 0 
0 0 0 0 0 0 0 0 0 
0 9 9 9 9 9 9 8 8 
8 8 10 10 10 10 10 10 11 
11 11 11 12 12 12 12 12 13 
13 13 13 25 25 25 14 14 14 
14 14 15 15 15 15 15 16 16 
16 16 16 16 29 29 30 30 30 
30 18 18 18 18 18 0 0 0 
0 0 0 0 0 0 0 0 0 
0 0 0 0 0 0 0 0 0 
0 0 0 0 0 0 0 0 0 
0 0 0 0 0 0 0 0 0 
0 19 19 9 9 9 9 9 8 
8 8 8 10 10 10 10 10 10 
22 22 22 22 12 12 12 12 12 
13 13 13 13 25 25 25 25 14 
14 14 26 26 15 15 15 15 16 
16 16 16 16 29 29 29 29 30 
30 30 18 18 18 18 18 31 0 
0 0 0 0 0 0 0 0 0 
0 0 0 0 0 0 0 0 0 
0 0 0 0 0 0 0 0 0 
0 0 0 0 0 0 0 0 0 
0 19 19 19 19 9 9 9 9 
21 21 21 21 21 35 35 35 35 
35 22 22 22 22 23 12 12 12 
12 13 13 13 13 25 25 25 25 
14 14 26 26 26 27 27 27 27 
28 28 28 28 29 29 29 29 29 
30 30 30 18 18 18 18 31 31 
31 0 0 0 0 0 0 0 0 
0 0 0 0 0 0 0 0 0 
0 0 0 0 0 0 0 0 0 
0 0 0 0 0 0 0 0 0 
0 19 19 19 19 19 19 19 19 
19 21 21 21 21 21 35 35 35 
35 35 22 22 22 22 23 23 12 
12 12 13 13 13 13 25 25 25 
25 25 26 26 26 26 27 27 27 
27 28 28 28 28 28 29 29 29 
29 29 30 30 18 18 18 31 31 
31 31 31 0 0 0 0 0 0 
0 0 0 0 0 0 0 0 0 
0 0 0 0 0 0 0 0 0 
0 0 0 0 0 0 0 0 0 
0 32 19 19 19 19 19 19 19 
19 19 21 21 21 21 21 21 35 
35 35 35 22 22 22 22 23 23 
23 23 24 24 24 24 24 25 25 
25 25 39 26 26 26 26 27 27 
27 27 28 28 28 28 28 29 29 
29 29 29 30 30 18 18 31 31 
31 31 31 31 0 0 0 0 0 
0 0 0 0 0 0 0 0 0 
0 0 0 0 0 0 0 0 0 
0 0 0 0 0 0 0 0 0 
0 32 32 32 19 19 19 19 19 
20 20 20 21 21 21 21 21 21 
35 35 35 35 22 22 22 22 23 
23 23 23 24 24 24 24 24 39 
39 39 39 39 26 26 26 26 27 
27 27 41 41 28 28 28 28 29 
29 29 29 29 30 30 30 31 31 
31 31 31 31 31 0 0 0 0 
0 0 0 0 0 0 0 0 0 
0 0 0 0 0 0 0 0 0 
0 0 0 0 0 0 0 0 0 
0 32 32 32 32 32 19 19 19 
20 20 20 20 34 34 34 34 21 
21 35 35 35 35 22 22 22 23 
23 23 23 23 24 24 24 24 24 
39 39 39 39 39 26 26 26 26 
27 27 41 41 41 41 28 28 28 
42 42 42 42 42 43 43 43 43 
31 31 31 31 31 44 44 0 0 
0 0 0 0 0 0 0 0 0 
0 0 0 0 0 0 0 0 0 
0 0 0 0 0 0 0 0 0 
0 32 32 32 32 32 32 33 33 
33 20 20 20 20 34 34 34 34 
34 34 35 35 35 35 35 22 23 
23 23 23 23 23 24 24 24 24 
24 39 39 39 39 39 39 26 26 
26 40 40 41 41 41 41 41 41 
42 42 42 42 42 42 43 43 43 
43 43 43 44 44 44 44 44 44 
0 0 0 0 0 0 0 0 0 
0 0 0 0 0 0 0 0 0 
0 0 0 0 0 0 0 0 0 
0 32 32 32 32 32 32 33 33 
33 33 20 20 20 20 20 34 34 
34 34 34 36 36 36 36 36 36 
23 23 23 23 23 23 24 24 24 
24 24 39 39 39 39 39 39 39 
26 40 40 40 40 41 41 41 41 
41 42 42 42 42 42 42 43 43 
43 43 43 43 44 44 44 44 44 
44 44 0 0 0 0 0 0 0 
0 0 0 0 0 0 0 0 0 
0 0 0 0 0 0 0 0 0 
0 0 32 32 32 32 32 33 33 
33 33 33 20 20 20 20 20 34 
34 34 34 34 36 36 36 36 36 
36 36 23 23 37 37 37 37 52 
52 52 52 38 38 38 39 39 39 
39 54 40 40 40 40 40 41 41 
41 41 42 42 42 42 42 42 43 
43 43 43 43 43 44 44 44 44 
44 44 59 59 0 0 0 0 0 
0 0 0 0 0 0 0 0 0 
0 0 0 0 0 0 0 0 0 
0 0 0 32 32 32 32 32 33 
33 33 33 33 20 20 20 20 20 
20 34 34 34 34 36 36 36 36 
36 36 36 36 37 37 37 37 37 
52 52 52 52 38 38 38 38 39 
39 54 54 54 40 40 40 40 40 
41 41 42 42 42 42 42 42 56 
43 43 43 43 43 43 44 44 44 
44 44 59 59 59 59 0 0 0 
0 0 0 0 0 0 0 0 0 
0 0 0 0 0 0 0 0 0 
0 0 0 0 45 45 45 45 45 
33 33 33 33 33 47 47 47 47 
20 20 48 48 48 48 36 36 36 
36 36 36 36 50 37 37 37 37 
37 52 52 52 52 38 38 38 38 
38 54 54 54 54 54 40 40 40 
40 40 55 55 55 55 55 55 56 
56 56 43 43 43 43 43 44 44 
44 44 59 59 59 59 59 0 0 
0 0 0 0 0 0 0 0 0 
0 0 0 0 0 0 0 0 0 
0 0 0 0 0 45 45 45 45 
45 45 33 33 33 33 47 47 47 
47 47 48 48 48 48 48 48 36 
36 36 36 36 50 50 50 37 37 
37 37 52 52 52 52 38 38 38 
38 53 54 54 54 54 54 54 40 
40 40 55 55 55 55 55 55 56 
56 56 56 56 57 57 57 57 58 
58 58 59 59 59 59 59 59 0 
0 0 0 0 0 0 0 0 0 
0 0 0 0 0 0 0 0 0 
0 0 0 0 0 0 45 45 45 