# vtk DataFile Version 5.1
vtk output
ASCII
DATASET STRUCTURED_POINTS
DIMENSIONS 100 100 1
SPACING 1 1 1
ORIGIN 0 0 0
POINT_DATA 10000
FIELD FieldData 3
CellType 1 10000 char
0 0 0 0 0 0 0 0 0 
0 0 0 0 0 0 0 0 0 
0 0 0 0 0 0 0 0 0 
0 0 0 0 0 0 0 0 0 
0 0 0 0 0 0 0 0 0 
0 0 0 0 0 0 0 0 0 
0 0 0 0 0 0 0 0 0 
0 0 0 0 0 0 0 0 0 
0 0 0 0 0 0 0 0 0 
0 0 0 0 0 0 0 0 0 
0 0 0 0 0 0 0 0 0 
0 0 0 0 0 0 0 0 0 
0 0 0 0 0 0 0 0 0 
0 0 0 0 0 0 0 0 0 
0 0 0 0 0 0 0 0 0 
0 0 0 0 0 0 0 0 0 
0 0 0 0 0 0 0 0 0 
0 0 0 0 0 0 0 0 0 
0 0 0 0 0 0 0 0 0 
0 0 0 0 0 0 0 0 0 
0 0 0 0 0 0 0 0 0 
0 0 0 0 0 0 0 0 0 
0 0 0 0 0 0 0 0 0 
0 0 0 0 0 0 0 0 0 
0 0 0 0 0 0 0 0 0 
0 0 0 0 0 0 0 0 0 
0 0 0 0 0 0 0 0 0 
0 0 0 0 0 0 0 0 0 
0 0 0 0 0 0 0 0 0 
0 0 0 0 0 0 0 0 0 
0 0 0 0 0 0 0 0 0 
0 0 0 0 0 0 0 0 0 
0 0 0 0 0 0 0 0 0 
0 0 0 0 0 0 0 0 0 
0 0 0 0 0 0 0 0 0 
0 0 0 0 0 0 0 0 0 
0 0 0 0 0 0 0 0 0 
0 0 0 0 0 0 0 0 0 
0 0 0 0 0 0 0 0 0 
0 0 0 0 0 0 0 0 0 
0 0 0 0 0 0 0 0 0 
0 0 0 0 0 0 0 0 0 
0 0 0 0 0 0 0 0 0 
0 0 0 0 0 0 0 0 0 
0 0 0 0 0 0 0 0 0 
0 0 0 0 0 0 0 0 0 
0 0 0 0 0 0 0 0 0 
0 0 0 0 0 0 0 0 0 
0 0 0 0 0 0 0 0 0 
0 0 0 0 0 0 0 0 0 
0 0 0 0 0 0 0 0 0 
0 0 0 0 0 0 0 0 0 
0 0 0 0 0 0 0 0 0 
0 0 0 0 0 0 0 0 0 
0 0 0 0 0 0 0 0 0 
0 0 0 0 0 0 0 0 0 
0 0 0 0 0 0 0 0 0 
0 0 0 0 0 0 0 0 0 
0 0 0 0 0 0 0 0 0 
0 0 0 0 0 0 0 0 0 
0 0 0 0 0 0 0 0 0 
0 0 0 0 0 0 0 0 0 
0 0 0 0 0 0 0 0 0 
0 0 0 0 0 0 0 0 0 
0 0 0 0 0 0 0 0 0 
0 0 0 0 0 0 0 0 0 
0 0 0 0 0 0 0 0 0 
0 0 0 0 0 0 0 0 0 
0 0 0 0 0 0 0 0 0 
0 0 0 0 0 0 0 0 0 
0 0 0 0 0 0 0 0 0 
0 0 0 0 0 0 0 0 0 
0 0 0 0 0 0 0 0 0 
0 0 0 0 0 0 0 0 0 
0 0 0 0 0 0 0 0 0 
0 0 0 0 0 0 0 0 0 
0 0 0 0 0 0 0 0 0 
0 0 0 0 0 0 0 0 0 
0 0 0 0 0 0 0 0 0 
0 0 0 0 0 0 0 0 0 
0 0 0 0 0 0 0 0 0 
0 0 0 0 0 0 0 0 0 
0 0 0 0 0 0 0 0 0 
0 0 0 0 0 0 0 0 0 
0 0 0 0 0 0 0 0 0 
0 0 0 0 0 0 0 0 0 
0 0 0 0 0 0 0 0 0 
0 0 0 0 0 0 0 0 0 
0 0 0 0 0 0 0 0 0 
0 0 0 0 0 0 0 0 0 
0 0 0 0 0 0 0 0 0 
0 0 0 0 0 0 0 0 0 
0 0 0 0 0 0 0 0 0 
0 0 0 0 0 0 0 0 0 
0 0 0 0 0 0 0 0 0 
0 0 0 0 0 0 0 0 0 
0 0 0 0 0 0 0 0 0 
0 0 0 0 0 0 0 0 0 
0 0 0 0 0 0 0 0 0 
0 0 0 0 0 0 0 0 0 
0 0 0 0 0 0 0 0 0 
0 0 0 0 0 0 0 0 0 
0 0 0 0 0 0 0 0 0 
0 0 0 0 0 0 0 0 0 
0 0 0 0 0 0 0 0 0 
0 0 0 0 0 0 0 0 0 
0 0 0 0 0 0 0 0 0 
0 0 0 0 0 0 0 0 0 
0 0 0 0 0 0 0 0 0 
0 0 0 0 0 0 0 0 0 
0 0 0 0 0 0 0 0 0 
0 0 0 0 0 0 0 0 0 
0 0 0 0 0 0 0 0 0 
0 0 0 0 0 0 0 0 0 
0 0 0 0 0 0 0 0 0 
0 0 0 0 0 0 0 0 0 
0 0 0 0 0 0 0 0 0 
0 0 0 0 0 0 0 0 0 
0 0 0 0 0 0 0 0 0 
0 0 0 0 0 0 0 0 0 
0 0 0 0 0 0 0 0 0 
0 0 0 0 0 0 0 0 0 
0 0 0 0 0 0 0 0 0 
0 0 0 0 0 0 0 0 0 
0 0 0 0 0 0 0 0 0 
0 0 0 0 0 0 0 0 0 
0 0 0 0 0 0 0 0 0 
0 0 0 0 0 0 0 0 0 
0 0 0 0 0 0 0 0 0 
0 0 0 0 0 0 0 0 0 
0 0 0 0 0 0 0 0 0 
0 0 0 0 0 0 0 0 0 
0 0 0 0 0 0 0 0 0 
0 0 0 0 0 0 0 0 0 
0 0 0 0 0 0 0 0 0 
0 0 0 0 0 0 0 0 0 
0 0 0 0 0 0 0 0 0 
0 0 0 0 0 0 0 0 0 
0 0 0 0 0 0 0 0 0 
0 0 0 0 0 0 0 0 0 
0 0 0 0 0 0 0 0 0 
0 0 0 0 0 0 0 0 0 
0 0 0 0 0 0 0 0 0 
0 0 0 0 0 0 0 0 0 
0 0 0 0 0 0 0 0 0 
0 0 0 0 0 0 0 0 0 
0 0 0 0 0 0 0 0 0 
0 0 0 0 0 0 0 0 0 
0 0 0 0 0 0 0 0 0 
0 0 0 0 0 0 0 0 0 
0 0 0 0 0 0 0 0 0 
0 0 0 0 0 0 0 0 0 
0 0 0 0 0 0 0 0 0 
0 0 0 0 0 0 0 0 0 
0 0 0 0 0 0 0 0 0 
0 0 0 0 0 0 0 0 0 
0 0 0 0 0 0 0 0 0 
0 0 0 0 0 0 0 0 0 
0 0 0 0 0 0 0 0 0 
0 0 0 0 0 0 0 0 0 
0 0 0 0 0 0 0 0 0 
0 0 0 0 0 0 0 0 0 
0 0 0 0 0 0 0 0 0 
0 0 0 0 0 0 0 0 0 
0 0 0 0 0 0 0 0 0 
0 0 0 0 0 0 0 0 0 
0 0 0 0 0 0 0 0 0 
0 0 0 0 0 0 0 0 0 
0 0 0 0 0 0 0 0 0 
0 0 0 0 0 0 0 0 0 
0 1 1 1 1 1 2 2 2 
2 2 2 2 2 1 1 1 1 
1 2 2 2 2 2 1 1 1 
1 2 2 2 2 2 1 2 2 
2 2 2 2 2 0 0 0 0 
0 0 0 0 0 0 0 0 0 
0 0 0 0 0 0 0 0 0 
0 0 0 0 0 0 0 0 0 
0 0 0 0 0 0 0 0 0 
0 0 0 0 0 0 0 0 0 
0 0 0 0 0 0 0 0 0 
0 1 1 1 1 1 1 2 2 
2 2 2 2 2 2 1 1 1 
1 1 2 2 2 2 2 1 1 
1 1 2 2 2 2 2 1 2 
2 2 2 2 2 2 2 0 0 
0 0 0 0 0 0 0 0 0 
0 0 0 0 0 0 0 0 0 
0 0 0 0 0 0 0 0 0 
0 0 0 0 0 0 0 0 0 
0 0 0 0 0 0 0 0 0 
0 0 0 0 0 0 0 0 0 
0 1 1 1 1 1 1 1 2 
2 2 2 2 2 2 2 1 1 
1 1 1 2 2 2 2 2 1 
1 1 1 2 2 2 2 2 1 
2 2 2 2 2 2 2 1 2 
2 2 0 0 0 0 0 0 0 
0 0 0 0 0 0 0 0 0 
0 0 0 0 0 0 0 0 0 
0 0 0 0 0 0 0 0 0 
0 0 0 0 0 0 0 0 0 
0 0 0 0 0 0 0 0 0 
0 1 1 1 1 1 1 1 1 
1 1 1 1 1 2 2 2 1 
1 1 1 1 2 2 2 2 2 
1 1 1 1 2 2 2 2 2 
1 1 1 1 1 1 1 1 1 
2 2 2 2 0 0 0 0 0 
0 0 0 0 0 0 0 0 0 
0 0 0 0 0 0 0 0 0 
0 0 0 0 0 0 0 0 0 
0 0 0 0 0 0 0 0 0 
0 0 0 0 0 0 0 0 0 
0 1 1 2 2 2 2 2 2 
2 1 1 1 1 1 1 1 1 
1 1 1 1 1 2 2 2 2 
2 1 1 1 1 2 2 2 2 
2 1 1 1 1 1 1 1 1 
1 2 2 2 2 2 0 0 0 
0 0 0 0 0 0 0 0 0 
0 0 0 0 0 0 0 0 0 
0 0 0 0 0 0 0 0 0 
0 0 0 0 0 0 0 0 0 
0 0 0 0 0 0 0 0 0 
0 1 1 1 2 2 2 2 2 
2 2 2 1 1 1 1 1 1 
2 2 2 2 1 2 2 2 2 
2 2 1 1 1 1 1 2 2 
2 2 1 1 1 1 1 1 1 
1 1 2 2 2 2 2 2 2 
0 0 0 0 0 0 0 0 0 
0 0 0 0 0 0 0 0 0 
0 0 0 0 0 0 0 0 0 
0 0 0 0 0 0 0 0 0 
0 0 0 0 0 0 0 0 0 
0 1 1 1 1 2 2 2 2 
2 2 1 1 1 1 1 1 1 
2 2 2 2 2 1 1 1 1 
1 1 1 1 1 1 1 1 1 
1 1 1 1 2 2 2 2 2 
2 2 2 2 2 2 2 1 2 
2 2 0 0 0 0 0 0 0 
0 0 0 0 0 0 0 0 0 
0 0 0 0 0 0 0 0 0 
0 0 0 0 0 0 0 0 0 
0 0 0 0 0 0 0 0 0 
0 1 1 1 1 1 2 2 2 
2 2 2 1 1 1 1 2 2 
2 2 2 2 2 2 1 1 1 
1 1 1 2 2 2 2 2 2 
2 2 1 1 1 2 2 2 2 
2 2 1 1 2 2 2 2 1 
2 2 2 2 0 0 0 0 0 
0 0 0 0 0 0 0 0 0 
0 0 0 0 0 0 0 0 0 
0 0 0 0 0 0 0 0 0 
0 0 0 0 0 0 0 0 0 
0 1 1 1 1 1 1 1 1 
1 1 1 2 1 1 1 1 1 
2 2 2 2 2 2 2 1 1 
1 1 1 1 2 2 2 2 2 
2 2 2 1 1 1 2 2 2 
2 2 2 1 1 1 1 1 2 
1 2 2 2 2 2 0 0 0 
0 0 0 0 0 0 0 0 0 
0 0 0 0 0 0 0 0 0 
0 0 0 0 0 0 0 0 0 
0 0 0 0 0 0 0 0 0 
0 1 1 1 1 1 1 1 1 
1 1 1 1 1 1 1 1 1 
1 2 2 2 2 2 2 2 1 
1 1 1 1 1 2 2 2 2 
2 2 2 2 1 1 1 1 2 
2 2 2 1 1 1 1 1 1 
2 1 1 2 2 2 2 2 0 
0 0 0 0 0 0 0 0 0 
0 0 0 0 0 0 0 0 0 
0 0 0 0 0 0 0 0 0 
0 0 0 0 0 0 0 0 0 
0 2 2 2 2 2 2 2 1 
1 1 1 1 1 1 1 1 1 
1 1 1 1 1 1 1 1 1 
1 1 1 1 1 1 1 1 1 
1 1 1 1 2 1 1 1 1 
1 2 2 1 1 1 1 1 1 
2 2 2 1 1 1 1 1 1 
1 0 0 0 0 0 0 0 0 
0 0 0 0 0 0 0 0 0 
0 0 0 0 0 0 0 0 0 
0 0 0 0 0 0 0 0 0 
0 1 1 2 2 2 2 2 2 
2 1 1 1 1 1 2 2 2 
2 2 2 1 1 1 1 1 1 
2 2 2 2 2 2 2 1 1 
1 1 1 1 1 1 1 1 1 
1 1 1 1 1 1 1 1 1 
1 2 2 2 2 1 1 1 1 
1 1 2 0 0 0 0 0 0 
0 0 0 0 0 0 0 0 0 
0 0 0 0 0 0 0 0 0 
0 0 0 0 0 0 0 0 0 
0 1 1 1 2 2 2 2 2 
2 2 1 1 1 1 2 2 2 
2 2 2 2 1 1 1 1 1 
1 2 2 2 2 2 2 2 1 
1 1 1 1 1 1 2 2 1 
1 1 1 2 2 2 2 2 2 
1 1 2 2 2 2 2 1 1 
1 1 1 2 2 0 0 0 0 
0 0 0 0 0 0 0 0 0 
0 0 0 0 0 0 0 0 0 
0 0 0 0 0 0 0 0 0 
0 1 1 1 1 1 2 2 2 
2 2 1 1 1 1 1 2 2 
2 2 2 2 2 1 1 1 1 
1 1 2 2 2 2 2 2 2 
2 1 1 1 1 1 2 2 2 
2 2 2 1 2 2 2 2 2 
2 2 1 2 2 2 2 2 1 
1 1 1 1 2 2 2 0 0 
0 0 0 0 0 0 0 0 0 
0 0 0 0 0 0 0 0 0 
0 0 0 0 0 0 0 0 0 
0 2 1 1 1 1 1 2 2 
2 2 2 1 1 1 1 1 2 
2 2 2 1 1 1 1 1 1 
1 1 1 2 2 2 2 1 1 
2 2 1 1 2 2 2 2 2 
2 2 2 2 1 1 2 2 2 
2 2 2 1 2 2 2 2 2 
1 1 1 1 1 2 2 2 2 
0 0 0 0 0 0 0 0 0 
0 0 0 0 0 0 0 0 0 
0 0 0 0 0 0 0 0 0 
0 2 2 2 1 1 1 1 1 
1 1 1 1 1 1 1 1 1 
2 2 2 1 1 1 1 2 2 
2 1 1 1 1 2 2 1 1 
1 1 1 1 1 1 1 2 2 
2 2 2 2 2 1 1 1 2 
2 2 2 2 1 1 1 1 1 
2 2 2 2 2 2 2 2 2 
2 2 0 0 0 0 0 0 0 
0 0 0 0 0 0 0 0 0 
0 0 0 0 0 0 0 0 0 
0 2 2 2 2 2 1 1 1 
1 1 1 1 1 1 1 1 1 
2 2 2 1 1 1 1 1 2 
2 2 1 1 1 1 1 1 1 
1 1 1 1 1 1 1 1 2 
2 2 2 2 2 2 1 1 1 
1 2 2 2 2 1 1 1 1 
1 2 2 2 2 2 1 1 2 
2 2 2 2 0 0 0 0 0 
0 0 0 0 0 0 0 0 0 
0 0 0 0 0 0 0 0 0 
0 0 2 2 2 2 2 1 1 
1 1 1 1 1 1 1 1 1 
1 1 1 1 1 1 1 1 1 
2 2 2 1 1 1 1 1 1 
1 1 1 1 1 1 1 1 1 
1 1 1 1 1 1 1 1 1 
1 1 1 1 1 1 1 1 1 
1 1 2 2 2 2 2 1 1 
2 2 2 2 2 0 0 0 0 
0 0 0 0 0 0 0 0 0 
0 0 0 0 0 0 0 0 0 
0 0 0 2 2 2 2 2 2 
1 2 2 1 1 1 1 1 1 
1 1 1 1 1 1 1 1 1 
1 2 2 2 1 1 1 1 1 
2 1 1 1 1 1 1 1 1 
1 2 1 1 1 1 1 2 2 
1 1 1 1 1 2 2 2 1 
1 1 1 2 2 2 2 1 1 
1 2 2 2 2 2 0 0 0 
0 0 0 0 0 0 0 0 0 
0 0 0 0 0 0 0 0 0 
0 0 0 0 2 2 2 2 2 
2 1 2 2 2 2 2 2 1 
1 1 1 1 1 2 2 1 1 
1 2 2 2 2 1 1 1 2 
2 2 2 2 2 2 2 1 1 
2 2 2 1 1 1 1 1 2 
2 2 1 1 1 2 2 2 2 
2 1 1 1 2 2 2 1 1 
1 1 1 1 1 1 1 0 0 
0 0 0 0 0 0 0 0 0 
0 0 0 0 0 0 0 0 0 
0 0 0 0 0 1 1 1 1 
1 1 1 2 2 2 2 2 2 
2 1 1 1 1 2 2 2 1 
1 1 2 2 2 2 1 1 1 
2 2 2 2 2 2 2 2 1 
1 2 2 2 2 1 1 1 2 
2 2 2 2 2 1 2 2 2 
2 2 1 1 1 2 1 1 1 
1 1 2 1 1 1 1 1 0 
0 0 0 0 0 0 0 0 0 
0 0 0 0 0 0 0 0 0 
0 0 0 0 0 0 1 1 1 
1 1 1 1 2 2 2 2 2 
1 1 1 2 2 2 2 2 1 
1 1 1 2 2 2 1 1 1 
1 1 2 2 2 2 2 2 1 
1 1 2 2 2 2 2 1 1 
2 2 2 2 2 2 1 2 2 
2 2 2 1 1 1 2 1 1 
1 1 2 2 1 1 1 1 1 
0 0 0 0 0 0 0 0 0 
0 0 0 0 0 0 0 0 0 
0 0 0 0 0 0 0 1 1 
1 1 1 1 1 2 2 2 2 
1 1 1 1 1 2 2 2 2 
1 1 1 1 2 2 2 1 1 
1 1 1 2 2 2 2 2 2 
1 1 1 1 1 2 2 2 1 
1 2 2 2 2 2 1 1 1 
2 2 2 2 1 2 2 2 1 
1 1 2 2 2 1 1 1 1 
1 0 0 0 0 0 0 0 0 
0 0 0 0 0 0 0 0 0 
0 0 0 0 0 0 0 0 2 
2 2 1 1 1 1 2 2 2 
2 1 1 1 1 1 2 2 2 
2 1 1 1 1 2 2 2 1 
1 1 1 1 1 1 1 1 1 
1 1 1 1 1 1 2 2 2 
1 1 1 1 2 2 1 1 1 
1 2 2 2 1 1 2 2 2 
2 1 2 2 2 2 1 1 1 
1 1 0 0 0 0 0 0 0 
0 0 0 0 0 0 0 0 0 
0 0 0 0 0 0 0 0 0 
2 2 2 2 1 1 1 2 2 
2 2 1 1 1 1 1 2 2 
2 2 1 1 1 1 2 2 2 
1 1 1 1 2 1 1 1 1 
1 1 2 1 1 1 1 2 2 
2 1 1 1 1 1 2 1 1 
1 1 1 2 1 1 1 2 2 
2 2 1 2 2 2 2 1 1 
2 2 2 0 0 0 0 0 0 
0 0 0 0 0 0 0 0 0 
0 0 0 0 0 0 0 0 0 
0 2 2 2 2 2 1 1 1 
1 1 1 1 1 1 1 1 2 
2 2 2 1 1 1 1 1 1 
1 1 2 2 2 2 1 1 1 
1 1 1 2 1 1 1 1 2 
2 2 1 1 1 1 1 1 1 
1 1 1 1 2 1 1 1 1 
2 2 2 1 2 2 2 2 1 
2 2 2 2 0 0 0 0 0 
0 0 0 0 0 0 0 0 0 
0 0 0 0 0 0 0 0 0 
0 0 2 2 2 2 2 1 2 
2 1 1 1 1 1 1 1 1 
1 1 1 1 1 2 2 2 1 
1 1 1 2 2 2 2 2 1 
1 1 1 2 2 2 2 2 1 
1 1 1 1 1 1 1 1 1 
1 1 1 1 1 1 1 1 1 
1 2 2 2 1 2 2 2 2 
2 2 2 2 2 0 0 0 0 
0 0 0 0 0 0 0 0 0 
0 0 0 0 0 0 0 0 0 
0 0 0 2 2 2 2 2 1 
2 2 2 1 1 1 1 2 2 
2 1 1 1 1 1 2 2 2 
1 1 1 1 2 2 2 2 2 
1 1 1 2 2 2 2 2 2 
1 1 1 1 2 2 2 2 2 
2 2 1 1 1 2 2 1 1 
1 1 2 2 2 1 1 1 1 
1 1 2 2 2 2 0 0 0 
0 0 0 0 0 0 0 0 0 
0 0 0 0 0 0 0 0 0 
0 0 0 0 2 2 2 2 1 
1 2 2 2 1 1 1 1 2 
2 2 1 1 1 1 1 2 2 
2 1 1 1 1 2 2 2 2 
2 1 1 1 2 2 2 2 2 
2 1 1 1 1 2 2 2 2 
2 2 1 1 2 2 2 2 2 
1 1 1 2 2 2 1 1 1 
1 1 1 1 2 2 2 0 0 
0 0 0 0 0 0 0 0 0 
0 0 0 0 0 0 0 0 0 
0 0 0 0 0 1 1 1 1 
1 1 2 2 2 1 1 1 1 
2 2 2 1 1 1 1 1 2 
2 2 1 1 1 1 2 2 2 
2 1 1 1 1 1 2 2 2 
2 2 1 1 1 1 2 2 2 
2 2 1 1 1 2 2 2 2 
2 2 2 1 1 1 1 1 1 
1 1 1 1 1 1 1 1 0 
0 0 0 0 0 0 0 0 0 
0 0 0 0 0 0 0 0 0 
0 0 0 0 0 0 1 1 1 
1 1 1 2 2 2 2 1 1 
1 2 2 2 2 1 1 1 1 
2 2 2 2 1 1 1 2 2 
2 2 1 1 1 1 1 2 2 
2 2 2 1 1 1 1 2 2 
2 2 1 1 1 1 2 2 2 
2 2 2 2 1 1 1 2 2 
2 1 1 1 1 2 2 2 2 
0 0 0 0 0 0 0 0 0 
0 0 0 0 0 0 0 0 0 
0 0 0 0 0 0 0 1 1 
1 1 1 1 2 2 2 2 2 
1 2 2 2 2 2 2 2 1 
1 1 1 2 2 2 2 1 1 
1 1 2 1 1 1 1 1 1 
1 1 1 1 1 1 1 1 2 
2 2 2 1 1 1 1 1 2 
2 2 2 2 2 1 1 1 2 
2 2 2 1 1 2 2 2 2 
2 0 0 0 0 0 0 0 0 
0 0 0 0 0 0 0 0 0 
0 0 0 0 0 0 0 0 1 
1 1 1 1 1 2 2 2 2 
2 1 2 2 2 2 2 2 1 
1 1 1 1 1 2 2 2 1 
1 1 1 1 1 1 1 1 1 
1 1 1 1 1 2 2 2 1 
2 2 2 2 1 1 1 1 1 
1 1 1 1 1 2 1 1 1 
2 2 2 2 2 2 2 2 2 
2 2 0 0 0 0 0 0 0 
0 0 0 0 0 0 0 0 0 
0 0 0 0 0 0 0 0 0 
2 2 2 2 2 2 1 1 1 
1 1 1 2 2 2 2 2 2 
1 1 1 1 1 1 2 2 2 
1 1 1 1 1 2 2 2 2 
1 1 1 1 1 1 2 2 2 
1 1 1 1 1 1 1 1 1 
2 1 1 1 1 1 1 1 1 
1 2 2 2 2 1 1 2 2 
2 2 2 0 0 0 0 0 0 
0 0 0 0 0 0 0 0 0 
0 0 0 0 0 0 0 0 0 
0 2 2 2 2 2 2 1 1 
1 1 1 1 1 1 1 1 1 
1 1 1 1 1 1 1 2 2 
2 1 1 1 1 1 2 2 2 
2 1 1 1 1 1 2 2 2 
2 1 1 1 1 1 2 2 2 
2 2 1 1 1 1 1 2 2 
1 1 2 2 2 2 1 1 1 
2 2 2 2 0 0 0 0 0 
0 0 0 0 0 0 0 0 0 
0 0 0 0 0 0 0 0 0 
0 0 2 2 2 2 2 2 1 
1 1 1 1 2 1 1 1 1 
1 1 2 2 2 2 1 1 2 
2 2 1 1 1 1 2 2 2 
2 1 1 1 2 2 2 2 2 
2 2 1 1 1 1 1 2 2 
2 2 2 1 1 1 1 2 2 
2 2 1 1 2 2 1 1 1 
1 1 1 1 1 0 0 0 0 
0 0 0 0 0 0 0 0 0 
0 0 0 0 0 0 0 0 0 
0 0 0 2 2 2 2 2 2 
1 1 1 1 2 2 1 1 1 
1 1 1 2 2 2 2 1 1 
1 1 1 1 2 2 2 2 2 
2 1 1 1 1 1 2 2 2 
2 2 1 1 1 1 1 1 2 
2 2 2 2 2 1 2 2 2 
2 2 2 1 1 1 1 1 1 
1 1 1 1 1 1 0 0 0 
0 0 0 0 0 0 0 0 0 
0 0 0 0 0 0 0 0 0 
0 0 0 0 1 2 2 2 2 
2 1 2 2 2 2 2 2 1 
1 1 1 2 2 2 2 1 1 
1 1 1 1 1 1 2 2 2 
2 2 1 1 1 1 1 1 2 
2 2 2 1 1 1 1 1 1 
2 2 2 2 2 2 1 2 2 
2 2 2 2 1 2 2 2 1 
1 1 1 2 2 2 2 0 0 
0 0 0 0 0 0 0 0 0 
0 0 0 0 0 0 0 0 0 
0 0 0 0 0 1 1 1 1 
1 1 1 2 2 2 2 2 2 
2 1 1 2 2 2 2 2 1 
1 1 1 1 1 1 1 2 2 
2 2 2 1 1 1 1 1 1 
1 1 1 1 2 2 2 2 2 
1 2 2 2 1 1 1 1 1 
2 2 2 2 1 1 2 2 2 
2 1 1 2 2 2 2 2 0 
0 0 0 0 0 0 0 0 0 
0 0 0 0 0 0 0 0 0 
0 0 0 0 0 0 1 1 1 
1 1 1 1 2 2 2 2 2 
1 1 1 1 2 2 2 2 2 
1 1 1 1 1 1 1 1 2 
2 2 2 2 1 1 2 2 2 
2 2 1 1 1 2 2 2 2 
2 1 1 2 2 1 1 1 1 
1 1 2 2 1 1 1 2 2 
2 2 2 1 2 2 2 2 2 
0 0 0 0 0 0 0 0 0 
0 0 0 0 0 0 0 0 0 
0 0 0 0 0 0 0 1 1 
1 1 1 1 1 2 2 2 2 
1 1 1 1 1 1 2 2 2 
2 1 1 1 1 1 1 1 1 
1 1 1 1 1 1 2 2 2 
2 2 2 1 1 1 2 2 2 
2 1 1 1 1 2 1 1 1 
1 1 1 2 1 1 1 1 2 
2 2 2 2 1 1 2 2 2 
2 0 0 0 0 0 0 0 0 
0 0 0 0 0 0 0 0 0 
0 0 0 0 0 0 0 0 1 
1 1 1 1 1 1 2 2 2 
2 1 1 1 1 1 1 2 2 
2 2 1 1 1 1 1 1 1 
1 1 1 1 2 2 1 1 2 
2 2 2 2 1 1 1 2 2 
2 2 1 1 1 1 1 1 1 
1 1 1 1 1 1 1 1 1 
2 2 2 2 2 1 1 1 2 
2 2 0 0 0 0 0 0 0 
0 0 0 0 0 0 0 0 0 
0 0 0 0 0 0 0 0 0 
2 2 2 2 2 2 1 1 1 
1 1 1 1 1 1 1 1 1 
1 1 1 1 1 1 2 2 2 
1 1 1 1 2 2 2 1 1 
1 2 2 2 2 1 1 1 2 
2 2 2 1 1 1 1 1 2 
2 2 2 2 2 1 1 1 1 
1 2 2 2 2 2 1 1 1 
1 2 2 0 0 0 0 0 0 
0 0 0 0 0 0 0 0 0 
0 0 0 0 0 0 0 0 0 
0 2 2 2 2 2 2 1 1 
1 1 1 2 2 2 2 2 2 
2 1 1 1 1 1 2 2 2 
2 1 1 1 2 2 2 2 1 
1 1 1 2 2 2 1 1 1 
2 2 2 2 1 1 1 1 1 
2 2 2 2 2 2 1 1 1 
1 1 1 1 1 2 2 1 1 
1 1 1 1 0 0 0 0 0 
0 0 0 0 0 0 0 0 0 
0 0 0 0 0 0 0 0 0 
0 0 2 2 2 2 2 2 1 
1 1 1 1 2 2 2 2 2 
2 2 1 1 1 1 1 2 2 
2 2 1 1 1 2 2 2 2 
1 1 1 1 1 1 1 1 1 
1 1 1 1 1 1 1 1 1 
1 1 1 1 1 2 2 2 2 
2 2 1 1 1 1 1 1 1 
1 1 1 1 1 0 0 0 0 
0 0 0 0 0 0 0 0 0 
0 0 0 0 0 0 0 0 0 
0 0 0 2 2 2 2 2 2 
1 1 1 1 1 2 2 2 2 
2 2 2 1 1 1 1 1 2 
2 2 2 1 1 1 2 2 2 
2 1 1 1 2 2 2 1 1 
2 2 2 1 1 1 2 2 2 
1 1 1 1 1 1 2 2 2 
2 2 2 1 1 1 1 1 1 
2 1 1 1 1 1 0 0 0 
0 0 0 0 0 0 0 0 0 
0 0 0 0 0 0 0 0 0 
0 0 0 0 2 2 2 2 2 
2 1 1 1 1 1 2 2 2 
2 2 2 2 1 1 1 1 1 
2 2 2 2 2 1 1 2 2 
2 2 1 2 2 2 2 2 1 
2 2 2 2 1 1 1 2 2 
2 1 1 1 1 1 1 2 2 
2 2 2 2 1 1 1 1 1 
2 2 2 2 2 2 2 0 0 
0 0 0 0 0 0 0 0 0 
0 0 0 0 0 0 0 0 0 
0 0 0 0 0 1 1 1 1 
1 1 1 1 1 1 1 1 1 
1 1 1 1 1 1 1 1 1 
1 2 2 2 2 2 2 1 2 
2 2 2 1 2 2 2 2 2 
1 2 2 2 2 1 1 1 2 
2 2 2 1 1 1 1 1 1 
1 1 1 2 2 1 1 1 1 
2 2 2 2 2 2 2 2 0 
0 0 0 0 0 0 0 0 0 
0 0 0 0 0 0 0 0 0 
0 0 0 0 0 0 1 1 1 
1 1 2 2 2 2 2 2 1 
1 1 1 1 1 1 2 2 2 
2 1 1 1 2 2 2 2 1 
1 1 1 1 1 2 2 2 2 
2 1 2 2 2 2 1 1 1 
2 2 2 2 2 1 1 1 1 
1 1 1 1 1 1 1 1 1 
1 2 2 2 2 2 2 2 2 
0 0 0 0 0 0 0 0 0 
0 0 0 0 0 0 0 0 0 
0 0 0 0 0 0 0 1 1 
1 1 1 2 2 2 2 2 2 
1 1 1 1 1 1 1 2 2 
2 2 1 1 1 1 2 2 2 
1 1 1 1 1 1 2 2 2 
2 1 1 2 2 2 2 1 1 
1 2 2 2 2 2 2 2 2 
1 1 1 1 1 1 1 1 1 
1 1 1 2 2 2 2 2 2 
2 0 0 0 0 0 0 0 0 
0 0 0 0 0 0 0 0 0 
0 0 0 0 0 0 0 0 1 
1 1 1 2 2 2 2 2 1 
1 2 2 2 2 1 1 1 2 
2 2 2 1 1 1 1 1 1 
1 1 1 1 1 1 1 1 2 
2 1 1 1 1 2 2 2 1 
1 1 2 2 2 2 2 2 2 
2 1 1 1 1 1 1 1 1 
1 1 1 1 1 1 1 1 1 
1 1 0 0 0 0 0 0 0 
0 0 0 0 0 0 0 0 0 
0 0 0 0 0 0 0 0 0 
1 1 1 2 2 2 2 2 1 
1 1 2 2 2 2 2 1 1 
2 2 2 2 1 1 1 1 1 
1 1 1 1 1 1 1 1 1 
1 1 1 1 1 1 1 1 1 
1 1 1 1 1 1 1 2 2 
1 1 1 1 1 1 1 1 1 
1 1 1 1 1 1 1 1 1 
1 1 1 0 0 0 0 0 0 
0 0 0 0 0 0 0 0 0 
0 0 0 0 0 0 0 0 0 
0 1 1 1 2 2 2 2 1 
1 1 1 2 2 2 2 2 2 
1 2 2 2 2 1 1 1 1 
1 1 1 1 1 2 2 2 2 
2 2 2 1 1 1 1 1 1 
2 2 2 2 1 1 1 1 1 
1 1 1 1 1 1 1 1 1 
1 1 2 2 2 2 2 2 1 
1 1 1 1 0 0 0 0 0 
0 0 0 0 0 0 0 0 0 
0 0 0 0 0 0 0 0 0 
0 0 1 1 1 1 2 2 2 
1 1 1 1 2 2 2 2 2 
2 1 2 2 2 2 1 1 1 
1 2 1 1 1 1 2 2 2 
2 2 2 2 2 1 1 1 2 
2 2 2 2 2 1 1 1 1 
1 1 1 1 1 1 1 1 1 
1 1 1 2 2 2 2 2 2 
1 1 1 1 1 0 0 0 0 
0 0 0 0 0 0 0 0 0 
0 0 0 0 0 0 0 0 0 
0 0 0 1 1 1 1 1 1 
1 1 1 1 1 1 2 2 2 
1 1 1 2 2 2 2 1 1 
1 2 2 1 1 1 1 2 2 
2 2 2 2 2 2 1 1 1 
1 2 2 2 2 2 1 1 1 
1 1 1 1 1 1 1 1 1 
1 1 1 1 2 2 2 2 2 
2 1 1 1 1 1 0 0 0 
0 0 0 0 0 0 0 0 0 
0 0 0 0 0 0 0 0 0 
0 0 0 0 1 1 1 1 1 
2 2 1 1 1 1 1 1 1 
1 1 1 1 2 2 1 1 1 
2 2 2 2 2 1 1 1 2 
2 2 2 2 2 2 1 1 1 
1 1 1 2 2 2 2 1 1 
1 1 1 1 1 1 1 1 2 
2 1 1 1 1 2 2 2 2 
2 2 2 1 1 1 0 0 0 
0 0 0 0 0 0 0 0 0 
0 0 0 0 0 0 0 0 0 
0 0 0 0 0 1 1 1 1 
2 2 2 2 2 2 2 2 1 
1 1 1 1 1 2 1 1 1 
1 2 2 2 2 2 1 1 1 
2 2 1 1 1 1 1 1 1 
1 1 1 1 2 2 2 2 2 
1 1 1 2 2 2 2 2 2 
2 2 1 1 1 1 2 2 2 
2 1 1 1 1 1 1 0 0 
0 0 0 0 0 0 0 0 0 
0 0 0 0 0 0 0 0 0 
0 0 0 0 0 0 1 1 1 
2 2 2 2 2 2 2 2 2 
1 1 1 1 1 1 1 1 1 
1 1 2 2 2 2 1 1 1 
1 1 1 1 1 1 1 2 1 
1 1 1 1 1 2 2 2 2 
2 1 1 1 1 2 2 2 2 
2 2 1 1 1 1 1 1 2 
2 1 1 1 1 1 1 1 0 
0 0 0 0 0 0 0 0 0 
0 0 0 0 0 0 0 0 0 
0 0 0 0 0 0 0 1 1 
1 1 1 1 1 1 2 2 2 
2 1 1 1 1 2 2 2 1 
1 1 1 2 2 2 2 1 1 
1 1 1 1 1 1 1 1 2 
2 2 2 2 2 1 1 1 1 
1 1 1 1 1 1 1 2 2 
2 2 2 1 1 1 1 1 1 
1 1 1 1 1 1 1 1 1 
0 0 0 0 0 0 0 0 0 
0 0 0 0 0 0 0 0 0 
0 0 0 0 0 0 0 0 0 
1 1 1 1 1 1 1 1 1 
1 1 1 2 2 2 2 2 2 
1 1 1 1 2 2 2 2 1 
1 1 1 1 1 1 1 1 1 
2 2 2 2 2 1 1 1 1 
1 2 2 1 1 1 1 1 2 
2 2 2 2 1 1 1 1 1 
1 2 2 1 1 1 1 1 1 
1 0 0 0 0 0 0 0 0 
0 0 0 0 0 0 0 0 0 
0 0 0 0 0 0 0 0 0 
0 0 1 1 1 1 1 1 2 
2 1 1 1 2 2 2 2 2 
2 1 1 1 1 2 2 2 2 
1 1 1 1 1 1 1 1 1 
2 2 2 2 2 1 1 1 1 
1 2 2 2 2 1 1 1 1 
1 2 2 2 2 1 1 1 1 
1 2 2 2 1 1 1 1 1 
1 0 0 0 0 0 0 0 0 
0 0 0 0 0 0 0 0 0 
0 0 0 0 0 0 0 0 0 
0 0 0 0 1 1 1 1 2 
2 2 1 1 1 2 2 2 2 
2 2 1 1 1 1 1 1 1 
1 1 2 2 2 2 2 1 1 
2 2 2 2 2 2 1 1 1 
1 1 2 2 2 2 1 1 1 
1 1 1 1 1 1 1 2 2 
2 2 2 2 1 1 1 1 1 
1 0 0 0 0 0 0 0 0 
0 0 0 0 0 0 0 0 0 
0 0 0 0 0 0 0 0 0 
0 0 0 0 0 0 1 1 2 
2 2 2 1 1 1 2 2 2 
1 1 1 2 2 2 2 1 1 
1 1 1 2 2 2 2 2 1 
1 2 2 2 2 2 2 1 1 
1 1 1 2 2 2 2 1 1 
2 2 2 1 1 1 1 1 2 
2 2 2 2 2 1 1 1 1 
1 0 0 0 0 0 0 0 0 
0 0 0 0 0 0 0 0 0 
0 0 0 0 0 0 0 0 0 
0 0 0 0 0 0 0 0 2 
2 2 2 2 1 1 1 2 2 
1 1 1 1 2 2 2 2 1 
1 1 1 1 2 2 2 2 1 
1 1 1 1 1 1 1 1 2 
2 2 1 1 2 2 2 2 1 
2 2 2 2 1 1 1 1 1 
2 2 2 2 2 2 1 1 1 
1 0 0 0 0 0 0 0 0 
0 0 0 0 0 0 0 0 0 
0 0 0 0 0 0 0 0 0 
0 0 0 0 0 0 0 0 0 
0 2 2 2 2 1 1 1 2 
1 1 1 1 1 2 2 2 2 
2 1 1 1 1 2 2 2 1 
1 1 1 2 2 1 1 1 1 
2 2 2 2 1 2 2 2 2 
1 2 2 2 2 1 1 1 1 
1 2 2 2 2 2 2 1 1 
1 0 0 0 0 0 0 0 0 
0 0 0 0 0 0 0 0 0 
0 0 0 0 0 0 0 0 0 
0 0 0 0 0 0 0 0 0 
0 0 0 2 2 2 1 1 1 
1 1 1 1 1 1 2 2 2 
2 2 2 1 1 2 2 2 2 
1 1 1 2 2 2 2 1 1 
1 2 2 2 2 1 2 2 2 
1 1 2 2 2 2 1 1 1 
1 1 1 1 1 1 1 1 1 
1 0 0 0 0 0 0 0 0 
0 0 0 0 0 0 0 0 0 
0 0 0 0 0 0 0 0 0 
0 0 0 0 0 0 0 0 0 
0 0 0 0 0 2 1 1 1 
2 2 1 1 1 1 1 2 2 
2 1 1 1 1 2 2 2 2 
1 1 1 1 2 2 2 2 1 
1 1 2 2 2 1 1 1 2 
1 1 1 1 2 2 2 1 1 
1 2 2 1 1 1 1 1 1 
1 0 0 0 0 0 0 0 0 
0 0 0 0 0 0 0 0 0 
0 0 0 0 0 0 0 0 0 
0 0 0 0 0 0 0 0 0 
0 0 0 0 0 0 0 1 1 
2 2 2 2 2 2 1 2 2 
2 1 1 1 1 1 1 2 2 
2 1 1 1 1 2 2 2 2 
1 1 1 2 2 2 1 1 1 
2 1 1 1 1 2 2 2 1 
2 2 2 2 1 1 1 1 1 
1 0 0 0 0 0 0 0 0 
0 0 0 0 0 0 0 0 0 
0 0 0 0 0 0 0 0 0 
0 0 0 0 0 0 0 0 0 
0 0 0 0 0 0 0 0 0 
2 2 2 2 2 2 2 1 1 
1 1 1 1 1 1 1 1 2 
2 2 1 1 1 1 2 2 2 
2 1 1 1 1 2 1 1 1 
1 2 1 1 1 1 1 2 1 
1 2 2 2 2 2 1 1 1 
1 0 0 0 0 0 0 0 0 
0 0 0 0 0 0 0 0 0 
0 0 0 0 0 0 0 0 0 
0 0 0 0 0 0 0 0 0 
0 0 0 0 0 0 0 0 0 
0 0 2 2 2 2 2 2 1 
1 1 2 1 1 1 1 1 1 
1 1 1 2 2 2 2 1 2 
2 2 1 1 1 1 2 1 1 
1 1 2 2 1 1 1 1 2 
1 1 2 2 2 2 2 2 1 
1 0 0 0 0 0 0 0 0 
0 0 0 0 0 0 0 0 0 
0 0 0 0 0 0 0 0 0 
0 0 0 0 0 0 0 0 0 
0 0 0 0 0 0 0 0 0 
0 0 0 0 2 2 2 2 1 
1 1 1 2 2 2 2 2 2 
1 1 1 1 2 2 2 2 1 
1 1 1 1 2 2 2 2 2 
1 1 2 2 2 2 1 2 2 
2 2 1 2 2 2 2 2 2 
1 0 0 0 0 0 0 0 0 
0 0 0 0 0 0 0 0 0 
0 0 0 0 0 0 0 0 0 
0 0 0 0 0 0 0 0 0 
0 0 0 0 0 0 0 0 0 
0 0 0 0 0 0 2 2 1 
1 1 1 1 2 2 2 2 2 
1 1 1 1 1 2 2 2 2 
1 1 1 1 1 2 2 2 2 
2 1 1 2 2 2 2 1 2 
2 2 2 2 2 2 2 2 2 
2 0 0 0 0 0 0 0 0 
0 0 0 0 0 0 0 0 0 
0 0 0 0 0 0 0 0 0 
0 0 0 0 0 0 0 0 0 
0 0 0 0 0 0 0 0 0 
0 0 0 0 0 0 0 0 1 
1 1 1 1 1 2 2 2 2 
2 1 1 1 1 1 2 2 2 
2 1 1 1 1 1 2 2 2 
2 2 1 1 2 2 2 2 1 
2 2 2 2 2 0 0 0 0 
0 0 0 0 0 0 0 0 0 
0 0 0 0 0 0 0 0 0 
0 0 0 0 0 0 0 0 0 
0 0 0 0 0 0 0 0 0 
0 0 0 0 0 0 0 0 0 
0 0 0 0 0 0 0 0 0 
0 1 1 1 1 1 2 2 2 
2 2 1 1 1 1 1 2 2 
2 2 1 1 1 1 1 2 2 
2 2 2 1 1 2 2 2 2 
1 2 2 2 2 0 0 0 0 
0 0 0 0 0 0 0 0 0 
0 0 0 0 0 0 0 0 0 
0 0 0 0 0 0 0 0 0 
0 0 0 0 0 0 0 0 0 
0 0 0 0 0 0 0 0 0 
0 0 0 0 0 0 0 0 0 
0 0 0 1 1 1 1 2 2 
2 2 2 1 1 1 1 1 2 
2 2 2 1 1 1 1 1 2 
2 2 2 2 1 1 2 2 2 
2 1 2 2 2 0 0 0 0 
0 0 0 0 0 0 0 0 0 
0 0 0 0 0 0 0 0 0 
0 0 0 0 0 0 0 0 0 
0 0 0 0 0 0 0 0 0 
0 0 0 0 0 0 0 0 0 
0 0 0 0 0 0 0 0 0 
0 0 0 0 0 0 0 0 0 
0 0 0 0 0 0 0 0 0 
0 0 0 0 0 0 0 0 0 
0 0 0 0 0 0 0 0 0 
0 0 0 0 0 0 0 0 0 
0 0 0 0 0 0 0 0 0 
0 0 0 0 0 0 0 0 0 
0 0 0 0 0 0 0 0 0 
0 0 0 0 0 0 0 0 0 
0 0 0 0 0 0 0 0 0 
0 0 0 0 0 0 0 0 0 
0 0 0 0 0 0 0 0 0 
0 0 0 0 0 0 0 0 0 
0 0 0 0 0 0 0 0 0 
0 0 0 0 0 0 0 0 0 
0 0 0 0 0 0 0 0 0 
0 0 0 0 0 0 0 0 0 
0 0 0 0 0 0 0 0 0 
0 0 0 0 0 0 0 0 0 
0 0 0 0 0 0 0 0 0 
0 0 0 0 0 0 0 0 0 
0 0 0 0 0 0 0 0 0 
0 0 0 0 0 0 0 0 0 
0 0 0 0 0 0 0 0 0 
0 0 0 0 0 0 0 0 0 
0 0 0 0 0 0 0 0 0 
0 0 0 0 0 0 0 0 0 
0 0 0 0 0 0 0 0 0 
0 0 0 0 0 0 0 0 0 
0 0 0 0 0 0 0 0 0 
0 0 0 0 0 0 0 0 0 
0 0 0 0 0 0 0 0 0 
0 0 0 0 0 0 0 0 0 
0 0 0 0 0 0 0 0 0 
0 0 0 0 0 0 0 0 0 
0 0 0 0 0 0 0 0 0 
0 0 0 0 0 0 0 0 0 
0 0 0 0 0 0 0 0 0 
0 0 0 0 0 0 0 0 0 
0 0 0 0 0 0 0 0 0 
0 0 0 0 0 0 0 0 0 
0 0 0 0 0 0 0 0 0 
0 0 0 0 0 0 0 0 0 
0 0 0 0 0 0 0 0 0 
0 0 0 0 0 0 0 0 0 
0 0 0 0 0 0 0 0 0 
0 0 0 0 0 0 0 0 0 
0 0 0 0 0 0 0 0 0 
0 0 0 0 0 0 0 0 0 
0 0 0 0 0 0 0 0 0 
0 0 0 0 0 0 0 0 0 
0 0 0 0 0 0 0 0 0 
0 0 0 0 0 0 0 0 0 
0 0 0 0 0 0 0 0 0 
0 0 0 0 0 0 0 0 0 
0 0 0 0 0 0 0 0 0 
0 0 0 0 0 0 0 0 0 
0 0 0 0 0 0 0 0 0 
0 0 0 0 0 0 0 0 0 
0 0 0 0 0 0 0 0 0 
0 0 0 0 0 0 0 0 0 
0 0 0 0 0 0 0 0 0 
0 0 0 0 0 0 0 0 0 
0 0 0 0 0 0 0 0 0 
0 0 0 0 0 0 0 0 0 
0 0 0 0 0 0 0 0 0 
0 0 0 0 0 0 0 0 0 
0 0 0 0 0 0 0 0 0 
0 0 0 0 0 0 0 0 0 
0 0 0 0 0 0 0 0 0 
0 0 0 0 0 0 0 0 0 
0 0 0 0 0 0 0 0 0 
0 0 0 0 0 0 0 0 0 
0 0 0 0 0 0 0 0 0 
0 0 0 0 0 0 0 0 0 
0 0 0 0 0 0 0 0 0 
0 0 0 0 0 0 0 0 0 
0 0 0 0 0 0 0 0 0 
0 0 0 0 0 0 0 0 0 
0 0 0 0 0 0 0 0 0 
0 0 0 0 0 0 0 0 0 
0 0 0 0 0 0 0 0 0 
0 0 0 0 0 0 0 0 0 
0 0 0 0 0 0 0 0 0 
0 0 0 0 0 0 0 0 0 
0 0 0 0 0 0 0 0 0 
0 0 0 0 0 0 0 0 0 
0 0 0 0 0 0 0 0 0 
0 0 0 0 0 0 0 0 0 
0 0 0 0 0 0 0 0 0 
0 0 0 0 0 0 0 0 0 
0 0 0 0 0 0 0 0 0 
0 0 0 0 0 0 0 0 0 
0 0 0 0 0 0 0 0 0 
0 0 0 0 0 0 0 0 0 
0 0 0 0 0 0 0 0 0 
0 0 0 0 0 0 0 0 0 
0 0 0 0 0 0 0 0 0 
0 0 0 0 0 0 0 0 0 
0 0 0 0 0 0 0 0 0 
0 0 0 0 0 0 0 0 0 
0 0 0 0 0 0 0 0 0 
0 0 0 0 0 0 0 0 0 
0 0 0 0 0 0 0 0 0 
0 0 0 0 0 0 0 0 0 
0 0 0 0 0 0 0 0 0 
0 0 0 0 0 0 0 0 0 
0 0 0 0 0 0 0 0 0 
0 
CellId 1 10000 long
0 0 0 0 0 0 0 0 0 
0 0 0 0 0 0 0 0 0 
0 0 0 0 0 0 0 0 0 
0 0 0 0 0 0 0 0 0 
0 0 0 0 0 0 0 0 0 
0 0 0 0 0 0 0 0 0 
0 0 0 0 0 0 0 0 0 
0 0 0 0 0 0 0 0 0 
0 0 0 0 0 0 0 0 0 
0 0 0 0 0 0 0 0 0 
0 0 0 0 0 0 0 0 0 
0 0 0 0 0 0 0 0 0 
0 0 0 0 0 0 0 0 0 
0 0 0 0 0 0 0 0 0 
0 0 0 0 0 0 0 0 0 
0 0 0 0 0 0 0 0 0 
0 0 0 0 0 0 0 0 0 
0 0 0 0 0 0 0 0 0 
0 0 0 0 0 0 0 0 0 
0 0 0 0 0 0 0 0 0 
0 0 0 0 0 0 0 0 0 
0 0 0 0 0 0 0 0 0 
0 0 0 0 0 0 0 0 0 
0 0 0 0 0 0 0 0 0 
0 0 0 0 0 0 0 0 0 
0 0 0 0 0 0 0 0 0 
0 0 0 0 0 0 0 0 0 
0 0 0 0 0 0 0 0 0 
0 0 0 0 0 0 0 0 0 
0 0 0 0 0 0 0 0 0 
0 0 0 0 0 0 0 0 0 
0 0 0 0 0 0 0 0 0 
0 0 0 0 0 0 0 0 0 
0 0 0 0 0 0 0 0 0 
0 0 0 0 0 0 0 0 0 
0 0 0 0 0 0 0 0 0 
0 0 0 0 0 0 0 0 0 
0 0 0 0 0 0 0 0 0 
0 0 0 0 0 0 0 0 0 
0 0 0 0 0 0 0 0 0 
0 0 0 0 0 0 0 0 0 
0 0 0 0 0 0 0 0 0 
0 0 0 0 0 0 0 0 0 
0 0 0 0 0 0 0 0 0 
0 0 0 0 0 0 0 0 0 
0 0 0 0 0 0 0 0 0 
0 0 0 0 0 0 0 0 0 
0 0 0 0 0 0 0 0 0 
0 0 0 0 0 0 0 0 0 
0 0 0 0 0 0 0 0 0 
0 0 0 0 0 0 0 0 0 
0 0 0 0 0 0 0 0 0 
0 0 0 0 0 0 0 0 0 
0 0 0 0 0 0 0 0 0 
0 0 0 0 0 0 0 0 0 
0 0 0 0 0 0 0 0 0 
0 0 0 0 0 0 0 0 0 
0 0 0 0 0 0 0 0 0 
0 0 0 0 0 0 0 0 0 
0 0 0 0 0 0 0 0 0 
0 0 0 0 0 0 0 0 0 
0 0 0 0 0 0 0 0 0 
0 0 0 0 0 0 0 0 0 
0 0 0 0 0 0 0 0 0 
0 0 0 0 0 0 0 0 0 
0 0 0 0 0 0 0 0 0 
0 0 0 0 0 0 0 0 0 
0 0 0 0 0 0 0 0 0 
0 0 0 0 0 0 0 0 0 
0 0 0 0 0 0 0 0 0 
0 0 0 0 0 0 0 0 0 
0 0 0 0 0 0 0 0 0 
0 0 0 0 0 0 0 0 0 
0 0 0 0 0 0 0 0 0 
0 0 0 0 0 0 0 0 0 
0 0 0 0 0 0 0 0 0 
0 0 0 0 0 0 0 0 0 
0 0 0 0 0 0 0 0 0 
0 0 0 0 0 0 0 0 0 
0 0 0 0 0 0 0 0 0 
0 0 0 0 0 0 0 0 0 
0 0 0 0 0 0 0 0 0 
0 0 0 0 0 0 0 0 0 
0 0 0 0 0 0 0 0 0 
0 0 0 0 0 0 0 0 0 
0 0 0 0 0 0 0 0 0 
0 0 0 0 0 0 0 0 0 
0 0 0 0 0 0 0 0 0 
0 0 0 0 0 0 0 0 0 
0 0 0 0 0 0 0 0 0 
0 0 0 0 0 0 0 0 0 
0 0 0 0 0 0 0 0 0 
0 0 0 0 0 0 0 0 0 
0 0 0 0 0 0 0 0 0 
0 0 0 0 0 0 0 0 0 
0 0 0 0 0 0 0 0 0 
0 0 0 0 0 0 0 0 0 
0 0 0 0 0 0 0 0 0 
0 0 0 0 0 0 0 0 0 
0 0 0 0 0 0 0 0 0 
0 0 0 0 0 0 0 0 0 
0 0 0 0 0 0 0 0 0 
0 0 0 0 0 0 0 0 0 
0 0 0 0 0 0 0 0 0 
0 0 0 0 0 0 0 0 0 
0 0 0 0 0 0 0 0 0 
0 0 0 0 0 0 0 0 0 
0 0 0 0 0 0 0 0 0 
0 0 0 0 0 0 0 0 0 
0 0 0 0 0 0 0 0 0 
0 0 0 0 0 0 0 0 0 
0 0 0 0 0 0 0 0 0 
0 0 0 0 0 0 0 0 0 
0 0 0 0 0 0 0 0 0 
0 0 0 0 0 0 0 0 0 
0 0 0 0 0 0 0 0 0 
0 0 0 0 0 0 0 0 0 
0 0 0 0 0 0 0 0 0 
0 0 0 0 0 0 0 0 0 
0 0 0 0 0 0 0 0 0 
0 0 0 0 0 0 0 0 0 
0 0 0 0 0 0 0 0 0 
0 0 0 0 0 0 0 0 0 
0 0 0 0 0 0 0 0 0 
0 0 0 0 0 0 0 0 0 
0 0 0 0 0 0 0 0 0 
0 0 0 0 0 0 0 0 0 
0 0 0 0 0 0 0 0 0 
0 0 0 0 0 0 0 0 0 
0 0 0 0 0 0 0 0 0 
0 0 0 0 0 0 0 0 0 
0 0 0 0 0 0 0 0 0 
0 0 0 0 0 0 0 0 0 
0 0 0 0 0 0 0 0 0 
0 0 0 0 0 0 0 0 0 
0 0 0 0 0 0 0 0 0 
0 0 0 0 0 0 0 0 0 
0 0 0 0 0 0 0 0 0 
0 0 0 0 0 0 0 0 0 
0 0 0 0 0 0 0 0 0 
0 0 0 0 0 0 0 0 0 
0 0 0 0 0 0 0 0 0 
0 0 0 0 0 0 0 0 0 
0 0 0 0 0 0 0 0 0 
0 0 0 0 0 0 0 0 0 
0 0 0 0 0 0 0 0 0 
0 0 0 0 0 0 0 0 0 
0 0 0 0 0 0 0 0 0 
0 0 0 0 0 0 0 0 0 
0 0 0 0 0 0 0 0 0 
0 0 0 0 0 0 0 0 0 
0 0 0 0 0 0 0 0 0 
0 0 0 0 0 0 0 0 0 
0 0 0 0 0 0 0 0 0 
0 0 0 0 0 0 0 0 0 
0 0 0 0 0 0 0 0 0 
0 0 0 0 0 0 0 0 0 
0 0 0 0 0 0 0 0 0 
0 0 0 0 0 0 0 0 0 
0 0 0 0 0 0 0 0 0 
0 0 0 0 0 0 0 0 0 
0 0 0 0 0 0 0 0 0 
0 0 0 0 0 0 0 0 0 
0 0 0 0 0 0 0 0 0 
0 0 0 0 0 0 0 0 0 
0 0 0 0 0 0 0 0 0 
0 0 0 0 0 0 0 0 0 
0 0 0 0 0 0 0 0 0 
0 0 0 0 0 0 0 0 0 
0 0 0 0 0 0 0 0 0 
0 1 1 1 1 1 3 3 3 
3 3 3 3 3 2 2 2 2 
2 4 4 4 4 4 14 14 14 
14 5 5 5 5 5 6 7 7 
7 7 7 7 7 0 0 0 0 
0 0 0 0 0 0 0 0 0 
0 0 0 0 0 0 0 0 0 
0 0 0 0 0 0 0 0 0 
0 0 0 0 0 0 0 0 0 
0 0 0 0 0 0 0 0 0 
0 0 0 0 0 0 0 0 0 
0 1 1 1 1 1 1 3 3 
3 3 3 3 3 3 2 2 2 
2 2 4 4 4 4 4 14 14 
14 14 5 5 5 5 5 6 7 
7 7 7 7 7 7 7 0 0 
0 0 0 0 0 0 0 0 0 
0 0 0 0 0 0 0 0 0 
0 0 0 0 0 0 0 0 0 
0 0 0 0 0 0 0 0 0 
0 0 0 0 0 0 0 0 0 
0 0 0 0 0 0 0 0 0 
0 1 1 1 1 1 1 1 3 
3 3 3 3 3 3 3 2 2 
2 2 2 4 4 4 4 4 14 
14 14 14 5 5 5 5 5 6 
7 7 7 7 7 7 7 6 17 
17 17 0 0 0 0 0 0 0 
0 0 0 0 0 0 0 0 0 
0 0 0 0 0 0 0 0 0 
0 0 0 0 0 0 0 0 0 
0 0 0 0 0 0 0 0 0 
0 0 0 0 0 0 0 0 0 
0 1 1 1 1 1 1 1 1 
11 11 11 11 11 3 3 3 2 
2 2 2 2 4 4 4 4 4 
14 14 14 14 5 5 5 5 5 
6 6 6 6 6 6 6 6 6 
17 17 17 17 0 0 0 0 0 
0 0 0 0 0 0 0 0 0 
0 0 0 0 0 0 0 0 0 
0 0 0 0 0 0 0 0 0 
0 0 0 0 0 0 0 0 0 
0 0 0 0 0 0 0 0 0 
0 8 8 10 10 10 10 10 10 
10 11 11 11 11 11 11 11 11 
2 2 2 2 2 4 4 4 4 
4 14 14 14 14 5 5 5 5 
5 6 6 6 6 6 6 6 6 
6 17 17 17 17 17 0 0 0 
0 0 0 0 0 0 0 0 0 
0 0 0 0 0 0 0 0 0 
0 0 0 0 0 0 0 0 0 
0 0 0 0 0 0 0 0 0 
0 0 0 0 0 0 0 0 0 
0 8 8 8 10 10 10 10 10 
10 10 10 11 11 11 11 11 11 
12 12 12 12 2 4 4 4 4 
4 4 14 14 14 14 14 5 5 
5 5 6 6 6 6 6 6 6 
6 6 17 17 17 17 17 18 18 
0 0 0 0 0 0 0 0 0 
0 0 0 0 0 0 0 0 0 
0 0 0 0 0 0 0 0 0 
0 0 0 0 0 0 0 0 0 
0 0 0 0 0 0 0 0 0 
0 8 8 8 8 10 10 10 10 
10 10 9 9 9 11 11 11 11 
12 12 12 12 12 25 25 25 25 
25 25 25 14 14 14 14 14 14 
27 27 27 27 16 16 16 16 16 
16 16 17 17 17 17 17 31 18 
18 18 0 0 0 0 0 0 0 
0 0 0 0 0 0 0 0 0 
0 0 0 0 0 0 0 0 0 
0 0 0 0 0 0 0 0 0 
0 0 0 0 0 0 0 0 0 
0 8 8 8 8 8 10 10 10 
10 10 10 9 9 9 9 12 12 
12 12 12 12 12 12 25 25 25 
25 25 25 13 13 13 13 13 13 
13 13 27 27 27 16 16 16 16 
16 16 15 15 17 17 17 17 31 
18 18 18 18 0 0 0 0 0 
0 0 0 0 0 0 0 0 0 
0 0 0 0 0 0 0 0 0 
0 0 0 0 0 0 0 0 0 
0 0 0 0 0 0 0 0 0 
0 8 8 8 8 8 8 20 20 
20 20 20 10 9 9 9 9 9 
12 12 12 12 12 12 12 25 25 
25 25 25 25 13 13 13 13 13 
13 13 13 27 27 27 16 16 16 
16 16 16 15 15 15 15 15 17 
31 18 18 18 18 18 0 0 0 
0 0 0 0 0 0 0 0 0 
0 0 0 0 0 0 0 0 0 
0 0 0 0 0 0 0 0 0 
0 0 0 0 0 0 0 0 0 
0 8 8 8 8 8 8 20 20 
20 20 20 20 20 9 9 9 9 
9 12 12 12 12 12 12 12 25 
25 25 25 25 25 13 13 13 13 
13 13 13 13 27 27 27 27 16 
16 16 16 15 15 15 15 15 15 
30 31 31 18 18 18 18 18 0 
0 0 0 0 0 0 0 0 0 
0 0 0 0 0 0 0 0 0 
0 0 0 0 0 0 0 0 0 
0 0 0 0 0 0 0 0 0 
0 19 19 19 19 19 19 19 20 
20 20 20 20 20 20 9 9 9 
9 9 23 23 23 23 23 23 23 
25 25 25 25 25 25 26 26 26 
26 26 26 26 13 27 27 27 27 
27 16 16 15 15 15 15 15 15 
30 30 30 31 31 31 31 31 31 
31 0 0 0 0 0 0 0 0 
0 0 0 0 0 0 0 0 0 
0 0 0 0 0 0 0 0 0 
0 0 0 0 0 0 0 0 0 
0 32 32 19 19 19 19 19 19 
19 20 20 20 20 20 22 22 22 
22 22 22 23 23 23 23 23 23 
24 24 24 24 24 24 24 26 26 
26 26 26 26 26 26 27 27 27 
27 27 27 15 15 15 15 15 15 
15 30 30 30 30 31 31 31 31 
31 31 44 0 0 0 0 0 0 
0 0 0 0 0 0 0 0 0 
0 0 0 0 0 0 0 0 0 
0 0 0 0 0 0 0 0 0 
0 32 32 32 19 19 19 19 19 
19 19 21 21 21 21 22 22 22 
22 22 22 22 23 23 23 23 23 
23 24 24 24 24 24 24 24 26 
26 26 26 26 26 26 28 28 27 
27 27 27 29 29 29 29 29 29 
15 15 30 30 30 30 30 31 31 
31 31 31 44 44 0 0 0 0 
0 0 0 0 0 0 0 0 0 
0 0 0 0 0 0 0 0 0 
0 0 0 0 0 0 0 0 0 
0 32 32 32 32 32 19 19 19 
19 19 21 21 21 21 21 22 22 
22 22 22 22 22 23 23 23 23 
23 23 24 24 24 24 24 24 24 
24 26 26 26 26 26 28 28 28 
28 28 28 41 29 29 29 29 29 
29 29 15 30 30 30 30 30 31 
31 31 31 31 44 44 44 0 0 
0 0 0 0 0 0 0 0 0 
0 0 0 0 0 0 0 0 0 
0 0 0 0 0 0 0 0 0 
0 45 32 32 32 32 32 19 19 
19 19 19 21 21 21 21 21 22 
22 22 22 34 34 34 23 23 23 
23 23 36 24 24 24 24 38 38 
24 24 39 39 28 28 28 28 28 
28 28 28 28 41 41 29 29 29 
29 29 29 42 30 30 30 30 30 
31 31 31 31 31 44 44 44 44 
0 0 0 0 0 0 0 0 0 
0 0 0 0 0 0 0 0 0 
0 0 0 0 0 0 0 0 0 
0 45 45 45 32 32 32 32 33 
33 33 33 33 21 21 21 21 21 
22 22 22 34 34 34 34 35 35 
35 36 36 36 36 24 24 38 38 
38 38 39 39 39 39 39 28 28 
28 28 28 28 28 41 41 41 29 
29 29 29 29 42 42 42 42 42 
43 43 43 43 43 43 44 44 44 
44 44 0 0 0 0 0 0 0 
0 0 0 0 0 0 0 0 0 
0 0 0 0 0 0 0 0 0 
0 45 45 45 45 45 32 32 32 
33 33 33 33 33 33 21 21 21 
22 22 22 34 34 34 34 34 35 
35 35 36 36 36 36 36 38 38 
38 38 38 39 39 39 39 39 28 
28 28 28 28 28 28 41 41 41 
41 29 29 29 29 42 42 42 42 
42 43 43 43 43 43 58 58 44 
44 44 44 44 0 0 0 0 0 
0 0 0 0 0 0 0 0 0 
0 0 0 0 0 0 0 0 0 
0 0 45 45 45 45 45 32 32 
32 33 33 33 33 33 33 48 48 
48 48 48 48 34 34 34 34 34 
35 35 35 36 36 36 36 36 38 
38 38 38 38 39 39 39 39 39 
39 40 40 40 40 40 40 41 41 
41 41 41 41 41 42 42 42 42 
42 42 43 43 43 43 43 58 58 
44 44 44 44 44 0 0 0 0 
0 0 0 0 0 0 0 0 0 
0 0 0 0 0 0 0 0 0 
0 0 0 45 45 45 45 45 45 
32 46 46 33 33 33 33 48 48 
48 48 48 48 48 34 34 34 34 
34 35 35 35 36 36 36 36 36 
37 38 38 38 38 39 39 39 39 
39 54 40 40 40 40 40 55 55 
41 41 41 41 41 56 56 56 42 
42 42 42 43 43 43 43 58 58 
58 44 44 44 44 44 0 0 0 
0 0 0 0 0 0 0 0 0 
0 0 0 0 0 0 0 0 0 
0 0 0 0 45 45 45 45 45 
45 61 46 46 46 46 46 46 48 
48 48 48 48 48 49 49 34 34 
34 35 35 35 35 36 36 36 37 
37 37 37 37 37 37 37 39 39 
54 54 54 40 40 40 40 40 55 
55 55 41 41 41 56 56 56 56 
56 42 42 42 43 43 43 58 58 
58 58 59 59 59 59 59 0 0 
0 0 0 0 0 0 0 0 0 
0 0 0 0 0 0 0 0 0 
0 0 0 0 0 61 61 61 61 
61 61 61 46 46 46 46 46 46 
46 48 48 48 48 49 49 49 50 
50 50 35 35 35 35 51 51 51 
37 37 37 37 37 37 37 37 53 
53 54 54 54 54 40 40 40 55 
55 55 55 55 55 41 56 56 56 
56 56 42 42 42 43 58 58 58 
58 58 73 59 59 59 59 59 0 
0 0 0 0 0 0 0 0 0 
0 0 0 0 0 0 0 0 0 