# vtk DataFile Version 5.1
vtk output
ASCII
DATASET STRUCTURED_POINTS
DIMENSIONS 100 100 1
SPACING 1 1 1
ORIGIN 0 0 0
POINT_DATA 10000
FIELD FieldData 3
CellType 1 10000 char
0 0 0 0 0 0 0 0 0 
0 0 0 0 0 0 0 0 0 
0 0 0 0 0 0 0 0 0 
0 0 0 0 0 0 0 0 0 
0 0 0 0 0 0 0 0 0 
0 0 0 0 0 0 0 0 0 
0 0 0 0 0 0 0 0 0 
0 0 0 0 0 0 0 0 0 
0 0 0 0 0 0 0 0 0 
0 0 0 0 0 0 0 0 0 
0 0 0 0 0 0 0 0 0 
0 0 0 0 0 0 0 0 0 
0 0 0 0 0 0 0 0 0 
0 0 0 0 0 0 0 0 0 
0 0 0 0 0 0 0 0 0 
0 0 0 0 0 0 0 0 0 
0 0 0 0 0 0 0 0 0 
0 0 0 0 0 0 0 0 0 
0 0 0 0 0 0 0 0 0 
0 0 0 0 0 0 0 0 0 
0 0 0 0 0 0 0 0 0 
0 0 0 0 0 0 0 0 0 
0 0 0 0 0 0 0 0 0 
0 0 0 0 0 0 0 0 0 
0 0 0 0 0 0 0 0 0 
0 0 0 0 0 0 0 0 0 
0 0 0 0 0 0 0 0 0 
0 0 0 0 0 0 0 0 0 
0 0 0 0 0 0 0 0 0 
0 0 0 0 0 0 0 0 0 
0 0 0 0 0 0 0 0 0 
0 0 0 0 0 0 0 0 0 
0 0 0 0 0 0 0 0 0 
0 0 0 0 0 0 0 0 0 
0 0 0 0 0 0 0 0 0 
0 0 0 0 0 0 0 0 0 
0 0 0 0 0 0 0 0 0 
0 0 0 0 0 0 0 0 0 
0 0 0 0 0 0 0 0 0 
0 0 0 0 0 0 0 0 0 
0 0 0 0 0 0 0 0 0 
0 0 0 0 0 0 0 0 0 
0 0 0 0 0 0 0 0 0 
0 0 0 0 0 0 0 0 0 
0 0 0 0 0 0 0 0 0 
0 0 0 0 0 0 0 0 0 
0 0 0 0 0 0 0 0 0 
0 0 0 0 0 0 0 0 0 
0 0 0 0 0 0 0 0 0 
0 0 0 0 0 0 0 0 0 
0 0 0 0 0 0 0 0 0 
0 0 0 0 0 0 0 0 0 
0 0 0 0 0 0 0 0 0 
0 0 0 0 0 0 0 0 0 
0 0 0 0 0 0 0 0 0 
0 0 0 0 0 0 0 0 0 
0 0 0 0 0 0 0 0 0 
0 0 0 0 0 0 0 0 0 
0 0 0 0 0 0 0 0 0 
0 0 0 0 0 0 0 0 0 
0 0 0 0 0 0 0 0 0 
0 0 0 0 0 0 0 0 0 
0 0 0 0 0 0 0 0 0 
0 0 0 0 0 0 0 0 0 
0 0 0 0 0 0 0 0 0 
0 0 0 0 0 0 0 0 0 
0 0 0 0 0 0 0 0 0 
0 0 0 0 0 0 0 0 0 
0 0 0 0 0 0 0 0 0 
0 0 0 0 0 0 0 0 0 
0 0 0 0 0 0 0 0 0 
0 0 0 0 0 0 0 0 0 
0 0 0 0 0 0 0 0 0 
0 0 0 0 0 0 0 0 0 
0 0 0 0 0 0 0 0 0 
0 0 0 0 0 0 0 0 0 
0 0 0 0 0 0 0 0 0 
0 0 0 0 0 0 0 0 0 
0 0 0 0 0 0 0 0 0 
0 0 0 0 0 0 0 0 0 
0 0 0 0 0 0 0 0 0 
0 0 0 0 0 0 0 0 0 
0 0 0 0 0 0 0 0 0 
0 0 0 0 0 0 0 0 0 
0 0 0 0 0 0 0 0 0 
0 0 0 0 0 0 0 0 0 
0 0 0 0 0 0 0 0 0 
0 0 0 0 0 0 0 0 0 
0 0 0 0 0 0 0 0 0 
0 0 0 0 0 0 0 0 0 
0 0 0 0 0 0 0 0 0 
0 0 0 0 0 0 0 0 0 
0 0 0 0 0 0 0 0 0 
0 0 0 0 0 0 0 0 0 
0 0 0 0 0 0 0 0 0 
0 0 0 0 0 0 0 0 0 
0 0 0 0 0 0 0 0 0 
0 0 0 0 0 0 0 0 0 
0 0 0 0 0 0 0 0 0 
0 0 0 0 0 0 0 0 0 
0 0 0 0 0 0 0 0 0 
0 0 0 0 0 0 0 0 0 
0 0 0 0 0 0 0 0 0 
0 0 0 0 0 0 0 0 0 
0 0 0 0 0 0 0 0 0 
0 0 0 0 0 0 0 0 0 
0 0 0 0 0 0 0 0 0 
0 0 0 0 0 0 0 0 0 
0 0 0 0 0 0 0 0 0 
0 0 0 0 0 0 0 0 0 
0 0 0 0 0 0 0 0 0 
0 0 0 0 0 0 0 0 0 
0 0 0 0 0 0 0 0 0 
0 0 0 0 0 0 0 0 0 
0 0 0 0 0 0 0 0 0 
0 0 0 0 0 0 0 0 0 
0 0 0 0 0 0 0 0 0 
0 0 0 0 0 0 0 0 0 
0 0 0 0 0 0 0 0 0 
0 0 0 0 0 0 0 0 0 
0 0 0 0 0 0 0 0 0 
0 0 0 0 0 0 0 0 0 
0 0 0 0 0 0 0 0 0 
0 0 0 0 0 0 0 0 0 
0 0 0 0 0 0 0 0 0 
0 0 0 0 0 0 0 0 0 
0 0 0 0 0 0 0 0 0 
0 0 0 0 0 0 0 0 0 
0 0 0 0 0 0 0 0 0 
0 0 0 0 0 0 0 0 0 
0 0 0 0 0 0 0 0 0 
0 0 0 0 0 0 0 0 0 
0 0 0 0 0 0 0 0 0 
0 0 0 0 0 0 0 0 0 
0 0 0 0 0 0 0 0 0 
0 0 0 0 0 0 0 0 0 
0 0 0 0 0 0 0 0 0 
0 0 0 0 0 0 0 0 0 
0 0 0 0 0 0 0 0 0 
0 0 0 0 0 0 0 0 0 
0 0 0 0 0 0 0 0 0 
0 0 0 0 0 0 0 0 0 
0 0 0 0 0 0 0 0 0 
0 0 0 0 0 0 0 0 0 
0 0 0 0 0 0 0 0 0 
0 0 0 0 0 0 0 0 0 
0 0 0 0 0 0 0 0 0 
0 0 0 0 0 0 0 0 0 
0 0 0 0 0 0 0 0 0 
0 0 0 0 0 0 0 0 0 
0 0 0 0 0 0 0 0 0 
0 0 0 0 0 0 0 0 0 
0 0 0 0 0 0 0 0 0 
0 0 0 0 0 0 0 0 0 
0 0 0 0 0 0 0 0 0 
0 0 0 0 0 0 0 0 0 
0 0 0 0 0 0 0 0 0 
0 0 0 0 0 0 0 0 0 
0 0 0 0 0 0 0 0 0 
0 0 0 0 0 0 0 0 0 
0 0 0 0 0 0 0 0 0 
0 0 0 0 0 0 0 0 0 
0 0 0 0 0 0 0 0 0 
0 0 0 0 0 0 0 0 0 
0 0 0 0 0 0 0 0 0 
0 0 0 0 0 0 0 0 0 
0 0 0 0 0 0 0 0 0 
0 0 0 0 0 0 0 0 0 
0 0 0 0 0 0 0 0 0 
0 0 0 0 0 0 0 0 0 
0 2 2 2 2 2 2 1 1 
1 1 1 1 1 1 1 1 1 
2 2 2 2 2 1 1 1 1 
1 2 2 2 2 2 2 2 1 
1 1 1 1 1 1 2 2 2 
0 0 0 0 0 0 0 0 0 
0 0 0 0 0 0 0 0 0 
0 0 0 0 0 0 0 0 0 
0 0 0 0 0 0 0 0 0 
0 0 0 0 0 0 0 0 0 
0 0 0 0 0 0 0 0 0 
0 2 2 2 2 2 2 2 1 
1 1 1 1 1 1 1 1 1 
1 2 2 2 2 1 1 1 1 
1 1 2 2 2 2 2 2 2 
1 1 1 1 1 1 1 2 2 
2 2 0 0 0 0 0 0 0 
0 0 0 0 0 0 0 0 0 
0 0 0 0 0 0 0 0 0 
0 0 0 0 0 0 0 0 0 
0 0 0 0 0 0 0 0 0 
0 0 0 0 0 0 0 0 0 
0 2 2 2 2 2 2 2 2 
1 1 1 1 1 1 1 1 1 
1 1 2 2 2 2 1 1 1 
1 1 1 2 2 2 2 2 2 
2 1 1 1 1 1 1 1 2 
2 2 2 2 0 0 0 0 0 
0 0 0 0 0 0 0 0 0 
0 0 0 0 0 0 0 0 0 
0 0 0 0 0 0 0 0 0 
0 0 0 0 0 0 0 0 0 
0 0 0 0 0 0 0 0 0 
0 2 2 1 2 2 2 2 2 
2 1 1 1 1 1 1 1 1 
1 1 1 2 2 2 2 1 1 
1 1 1 1 2 2 2 2 1 
1 1 1 1 1 1 1 1 1 
2 2 2 2 2 2 0 0 0 
0 0 0 0 0 0 0 0 0 
0 0 0 0 0 0 0 0 0 
0 0 0 0 0 0 0 0 0 
0 0 0 0 0 0 0 0 0 
0 0 0 0 0 0 0 0 0 
0 2 2 2 1 1 1 1 1 
1 1 1 1 1 1 2 2 1 
1 1 1 1 2 2 2 2 1 
1 1 1 1 1 1 1 1 1 
1 1 1 2 2 2 2 2 2 
1 2 2 2 2 2 2 2 0 
0 0 0 0 0 0 0 0 0 
0 0 0 0 0 0 0 0 0 
0 0 0 0 0 0 0 0 0 
0 0 0 0 0 0 0 0 0 
0 0 0 0 0 0 0 0 0 
0 2 2 2 2 1 1 1 1 
1 1 1 1 1 1 2 2 2 
2 2 1 1 1 2 2 2 2 
1 1 1 1 1 1 1 1 1 
1 1 1 1 2 2 2 2 2 
2 1 1 1 1 1 1 1 1 
1 0 0 0 0 0 0 0 0 
0 0 0 0 0 0 0 0 0 
0 0 0 0 0 0 0 0 0 
0 0 0 0 0 0 0 0 0 
0 0 0 0 0 0 0 0 0 
0 2 2 2 2 2 1 1 1 
1 1 1 1 1 1 1 2 2 
2 2 2 2 1 1 1 1 1 
1 1 1 1 1 1 1 1 1 
1 1 1 1 1 2 2 2 2 
2 2 1 1 1 1 1 1 1 
1 1 2 0 0 0 0 0 0 
0 0 0 0 0 0 0 0 0 
0 0 0 0 0 0 0 0 0 
0 0 0 0 0 0 0 0 0 
0 0 0 0 0 0 0 0 0 
0 2 2 2 2 2 2 1 1 
1 1 1 1 1 1 1 1 2 
2 2 2 2 2 1 1 1 1 
1 1 1 1 1 1 1 1 1 
1 1 1 1 1 1 2 2 2 
2 2 2 1 1 1 1 1 1 
1 1 1 2 2 0 0 0 0 
0 0 0 0 0 0 0 0 0 
0 0 0 0 0 0 0 0 0 
0 0 0 0 0 0 0 0 0 
0 0 0 0 0 0 0 0 0 
0 2 2 2 2 2 2 2 1 
1 1 1 2 2 1 1 1 1 
2 2 2 2 2 2 1 1 1 
1 1 1 1 1 1 1 1 1 
1 1 1 1 1 1 1 1 2 
2 2 2 2 1 1 1 1 1 
1 1 1 1 2 2 2 0 0 
0 0 0 0 0 0 0 0 0 
0 0 0 0 0 0 0 0 0 
0 0 0 0 0 0 0 0 0 
0 0 0 0 0 0 0 0 0 
0 2 2 2 1 1 1 1 1 
1 2 2 2 2 2 1 1 1 
1 2 2 2 2 1 1 1 1 
1 1 1 1 1 1 2 2 2 
2 2 1 1 1 1 2 2 2 
2 1 1 1 2 1 1 1 1 
1 1 1 1 1 2 2 2 2 
0 0 0 0 0 0 0 0 0 
0 0 0 0 0 0 0 0 0 
0 0 0 0 0 0 0 0 0 
0 0 0 0 0 0 0 0 0 
0 2 2 2 2 2 1 1 1 
1 1 2 2 2 2 2 1 1 
1 1 1 1 1 1 1 1 1 
1 1 1 1 1 1 1 2 2 
2 2 2 1 1 1 1 2 2 
2 2 1 1 1 1 1 1 2 
2 2 2 2 1 1 2 2 2 
2 2 0 0 0 0 0 0 0 
0 0 0 0 0 0 0 0 0 
0 0 0 0 0 0 0 0 0 
0 0 0 0 0 0 0 0 0 
0 2 2 2 2 2 2 1 1 
1 1 1 2 2 2 2 2 1 
1 1 1 1 1 1 1 2 2 
2 2 2 2 2 1 1 1 2 
2 2 2 2 1 1 1 1 2 
2 2 2 1 1 1 1 1 1 
2 2 2 2 2 1 1 2 2 
2 2 2 2 0 0 0 0 0 
0 0 0 0 0 0 0 0 0 
0 0 0 0 0 0 0 0 0 
0 0 0 0 0 0 0 0 0 
0 2 2 2 2 2 2 2 1 
1 1 1 1 2 2 2 2 2 
1 1 1 1 1 1 1 1 2 
2 2 2 2 2 2 1 1 1 
2 2 2 2 2 1 1 1 1 
2 2 2 2 1 1 1 1 1 
1 2 2 2 2 2 1 1 2 
2 2 2 2 2 2 0 0 0 
0 0 0 0 0 0 0 0 0 
0 0 0 0 0 0 0 0 0 
0 0 0 0 0 0 0 0 0 
0 2 2 1 1 2 2 2 2 
1 1 1 1 1 2 2 2 2 
2 1 1 1 1 1 1 1 1 
2 2 2 2 2 2 2 1 1 
1 2 2 2 2 2 1 1 1 
2 2 2 2 2 2 2 2 2 
2 1 2 2 2 2 2 1 1 
1 1 1 1 1 2 2 2 0 
0 0 0 0 0 0 0 0 0 
0 0 0 0 0 0 0 0 0 
0 0 0 0 0 0 0 0 0 
0 2 2 2 1 1 1 1 1 
1 1 1 1 1 1 1 1 1 
1 1 1 2 2 2 2 1 1 
1 1 1 2 2 2 2 2 1 
1 1 1 1 1 1 1 1 1 
1 2 2 2 2 2 2 2 2 
2 2 1 2 2 2 2 2 1 
1 1 1 1 1 1 2 2 2 
2 0 0 0 0 0 0 0 0 
0 0 0 0 0 0 0 0 0 
0 0 0 0 0 0 0 0 0 
0 2 2 2 2 1 1 1 1 
1 1 1 1 1 1 1 1 1 
1 1 1 1 2 2 2 2 1 
1 1 1 1 2 2 1 1 1 
1 1 1 1 1 1 2 2 2 
2 2 1 1 1 1 2 2 2 
2 2 2 1 1 1 1 1 1 
1 1 1 1 1 1 1 2 2 
2 2 2 0 0 0 0 0 0 
0 0 0 0 0 0 0 0 0 
0 0 0 0 0 0 0 0 0 
0 2 2 2 2 2 1 1 1 
1 1 1 1 1 1 1 1 1 
1 1 1 1 1 2 2 2 2 
1 1 1 1 1 1 1 1 1 
1 1 1 1 1 1 2 2 2 
2 2 2 1 1 1 1 2 2 
2 2 2 2 1 1 1 1 1 
1 1 1 1 1 1 1 2 2 
2 2 2 2 0 0 0 0 0 
0 0 0 0 0 0 0 0 0 
0 0 0 0 0 0 0 0 0 
0 0 2 2 2 2 2 1 1 
1 1 1 1 1 1 1 1 1 
1 1 1 1 1 1 2 2 2 
2 1 1 1 1 1 1 1 1 
1 1 1 1 1 1 1 2 2 
2 2 2 2 1 1 1 1 1 
2 2 2 2 2 1 1 1 1 
2 2 2 2 2 2 1 1 2 
2 2 2 2 2 0 0 0 0 
0 0 0 0 0 0 0 0 0 
0 0 0 0 0 0 0 0 0 
0 0 0 2 2 2 2 2 1 
1 1 1 1 1 1 1 1 1 
2 2 2 2 1 1 2 2 2 
2 2 1 1 1 1 1 1 1 
1 1 1 2 2 2 2 1 1 
2 2 2 2 1 1 1 1 1 
1 1 2 2 2 2 1 1 1 
1 2 2 2 2 2 2 1 1 
1 1 1 1 1 1 0 0 0 
0 0 0 0 0 0 0 0 0 
0 0 0 0 0 0 0 0 0 
0 0 0 0 2 2 2 2 2 
1 1 1 1 2 2 1 1 1 
1 2 2 2 2 1 1 1 2 
2 2 2 1 1 2 2 2 1 
1 1 1 2 2 2 2 2 2 
1 2 2 2 2 1 1 1 1 
1 1 1 2 2 2 2 1 1 
1 1 2 2 2 2 2 2 1 
1 1 1 1 1 1 1 0 0 
0 0 0 0 0 0 0 0 0 
0 0 0 0 0 0 0 0 0 
0 0 0 0 0 1 1 1 1 
1 1 1 2 2 2 2 1 1 
1 1 2 2 2 2 1 1 1 
1 1 1 2 2 2 2 2 2 
1 1 1 1 2 2 2 2 2 
2 1 1 1 1 1 2 2 2 
2 2 2 2 2 2 2 2 1 
1 1 1 2 2 2 2 2 2 
1 1 1 1 1 1 1 1 0 
0 0 0 0 0 0 0 0 0 
0 0 0 0 0 0 0 0 0 
0 0 0 0 0 0 1 1 1 
1 1 1 2 2 2 2 2 1 
1 1 1 2 2 2 2 1 1 
1 1 1 1 2 2 2 2 2 
2 1 1 1 1 2 2 2 2 
2 2 1 1 1 1 1 2 2 
2 2 2 2 2 2 2 2 2 
1 1 1 1 1 1 1 1 1 
1 1 1 1 1 1 1 1 1 
0 0 0 0 0 0 0 0 0 
0 0 0 0 0 0 0 0 0 
0 0 0 0 0 0 0 1 1 
1 1 1 1 2 2 2 2 2 
1 1 1 1 2 2 2 2 1 
1 1 1 1 1 2 2 2 2 
2 2 1 1 1 1 1 1 2 
2 2 2 1 1 1 1 1 2 
2 2 2 2 2 2 2 2 2 
2 2 2 2 2 1 1 1 1 
1 1 1 1 1 1 1 1 1 
1 0 0 0 0 0 0 0 0 
0 0 0 0 0 0 0 0 0 
0 0 0 0 0 0 0 0 1 
1 1 1 1 1 2 2 2 2 
2 1 1 1 1 2 2 2 2 
2 1 1 1 1 1 2 2 2 
2 2 2 1 1 1 1 1 1 
2 2 2 2 1 1 1 1 1 
2 2 2 2 2 2 2 2 2 
2 2 2 2 2 2 1 1 1 
1 1 1 1 1 1 1 1 1 
1 1 0 0 0 0 0 0 0 
0 0 0 0 0 0 0 0 0 
0 0 0 0 0 0 0 0 0 
2 2 2 2 2 1 2 2 2 
2 2 1 1 1 1 1 1 1 
1 1 2 2 2 2 1 1 1 
1 1 1 2 1 1 1 1 1 
1 2 2 2 2 2 1 1 1 
1 2 2 2 1 1 1 1 1 
1 1 2 2 2 2 2 1 1 
1 1 2 2 2 2 1 1 1 
1 1 1 0 0 0 0 0 0 
0 0 0 0 0 0 0 0 0 
0 0 0 0 0 0 0 0 0 
0 2 2 2 2 1 1 1 1 
1 1 2 2 2 2 1 1 1 
1 1 1 2 2 2 2 2 1 
1 1 1 1 2 1 1 1 1 
1 1 2 2 2 2 2 1 1 
1 1 2 2 2 1 1 1 1 
1 1 1 2 2 2 2 2 1 
1 1 1 2 2 2 2 1 1 
1 1 1 1 0 0 0 0 0 
0 0 0 0 0 0 0 0 0 
0 0 0 0 0 0 0 0 0 
0 0 2 2 2 2 1 1 1 
1 1 2 2 2 2 2 1 1 
1 1 1 1 2 2 2 2 2 
1 1 1 1 1 2 2 2 1 
1 1 2 2 2 2 2 2 1 
1 1 1 2 2 2 1 1 1 
1 1 1 1 2 2 2 2 2 
1 1 1 1 2 2 2 2 1 
1 1 1 1 1 0 0 0 0 
0 0 0 0 0 0 0 0 0 
0 0 0 0 0 0 0 0 0 
0 0 0 2 2 2 2 1 1 
1 1 1 2 2 2 2 2 1 
1 1 1 1 1 2 2 2 2 
2 1 1 1 1 1 2 2 2 
2 2 1 2 2 2 2 2 2 
1 1 1 1 2 2 2 2 1 
1 1 1 1 1 1 1 1 2 
1 1 1 1 1 2 2 2 2 
1 1 1 1 1 1 0 0 0 
0 0 0 0 0 0 0 0 0 
0 0 0 0 0 0 0 0 0 
0 0 0 0 2 2 2 2 1 
1 1 1 1 2 2 2 2 2 
1 1 1 1 1 1 2 2 2 
2 2 1 1 1 1 1 2 2 
2 2 2 2 1 1 1 1 1 
1 1 1 1 1 2 2 2 2 
2 2 2 2 2 1 1 1 1 
1 1 1 1 1 1 2 2 2 
2 1 1 1 1 1 1 0 0 
0 0 0 0 0 0 0 0 0 
0 0 0 0 0 0 0 0 0 
0 0 0 0 0 2 2 2 2 
1 1 1 1 1 2 2 2 2 
2 2 2 2 2 2 1 1 2 
2 2 2 2 2 2 2 1 2 
2 2 2 2 2 1 1 1 1 
1 1 1 1 1 1 2 2 2 
2 2 2 2 2 2 1 1 1 
1 1 1 1 1 1 1 2 2 
2 2 1 1 1 1 1 1 0 
0 0 0 0 0 0 0 0 0 
0 0 0 0 0 0 0 0 0 
0 0 0 0 0 0 2 2 2 
2 2 1 1 1 1 1 1 2 
2 2 2 2 2 2 2 1 1 
1 1 1 1 2 2 2 2 2 
2 2 2 2 2 1 1 1 1 
1 1 1 1 1 1 1 2 2 
2 2 2 2 2 2 2 1 1 
1 1 1 1 1 1 1 1 2 
1 1 1 1 1 1 1 1 1 
0 0 0 0 0 0 0 0 0 
0 0 0 0 0 0 0 0 0 
0 0 0 0 0 0 0 2 2 
2 2 2 1 1 1 1 1 1 
2 2 2 2 2 2 2 2 1 
1 1 1 1 1 2 2 2 2 
2 1 1 1 1 2 2 2 2 
1 1 1 1 1 1 1 1 2 
2 2 2 2 2 2 2 2 1 
1 1 1 1 1 1 1 1 1 
1 1 1 1 1 1 1 1 1 
1 0 0 0 0 0 0 0 0 
0 0 0 0 0 0 0 0 0 
0 0 0 0 0 0 0 0 2 
2 2 2 2 1 1 1 1 1 
1 1 1 2 2 2 2 2 2 
1 1 1 1 1 1 2 2 2 
2 2 1 1 1 1 2 2 2 
2 2 2 1 1 2 2 2 2 
1 1 1 1 2 2 2 2 2 
2 1 1 1 1 1 1 1 1 
1 1 1 1 1 1 1 1 1 
1 1 0 0 0 0 0 0 0 
0 0 0 0 0 0 0 0 0 
0 0 0 0 0 0 0 0 0 
2 2 2 2 2 1 1 1 1 
1 1 1 1 2 2 2 1 1 
2 2 2 1 1 1 1 2 2 
2 2 2 1 1 1 1 2 2 
2 2 2 2 2 2 2 2 2 
2 1 1 1 1 1 1 2 2 
2 2 1 1 1 1 1 2 2 
2 2 2 1 1 1 1 2 2 
2 2 2 0 0 0 0 0 0 
0 0 0 0 0 0 0 0 0 
0 0 0 0 0 0 0 0 0 
0 2 2 2 2 2 1 2 2 
2 2 2 2 2 1 1 1 1 
1 2 2 2 2 1 1 1 2 
2 2 2 2 1 1 1 1 2 
2 2 2 2 2 2 2 2 2 
2 2 1 1 1 1 1 2 2 
2 2 2 1 1 1 1 1 2 
2 2 2 2 1 1 1 1 2 
2 2 2 2 0 0 0 0 0 
0 0 0 0 0 0 0 0 0 
0 0 0 0 0 0 0 0 0 
0 0 2 2 2 1 1 1 2 
2 2 2 2 2 2 1 1 1 
1 1 2 2 2 2 2 1 1 
1 1 1 1 1 1 1 1 1 
1 2 2 2 2 2 2 2 2 
2 2 2 1 1 1 1 1 2 
2 2 2 2 1 1 1 1 1 
2 2 2 2 2 1 1 1 1 
2 2 2 2 2 0 0 0 0 
0 0 0 0 0 0 0 0 0 
0 0 0 0 0 0 0 0 0 
0 0 0 1 1 1 1 1 1 
2 2 2 2 2 2 2 1 1 
1 1 1 2 2 2 2 2 1 
1 1 1 1 1 1 1 1 1 
1 1 1 1 1 1 1 1 2 
2 2 2 2 1 1 1 1 1 
2 2 2 2 2 1 1 1 1 
1 2 2 2 2 2 2 1 1 
1 2 2 2 2 2 0 0 0 
0 0 0 0 0 0 0 0 0 
0 0 0 0 0 0 0 0 0 
0 0 0 0 1 1 1 1 1 
1 2 2 2 2 2 2 2 1 
1 1 1 1 2 2 2 2 2 
1 1 1 1 1 1 1 1 2 
2 2 2 2 1 1 1 1 1 
2 2 1 1 1 1 2 2 2 
1 2 2 2 2 2 2 2 2 
1 1 2 2 2 2 2 2 1 
1 1 2 2 2 2 2 0 0 
0 0 0 0 0 0 0 0 0 
0 0 0 0 0 0 0 0 0 
0 0 0 0 0 1 1 1 1 
1 1 2 2 1 1 1 1 1 
1 1 1 1 1 2 2 2 2 
2 1 1 1 1 1 1 1 2 
2 2 2 2 2 1 1 1 1 
1 2 2 1 1 1 1 2 2 
2 2 1 1 1 1 2 2 2 
2 2 2 1 1 1 2 1 1 
1 1 1 1 1 2 2 2 0 
0 0 0 0 0 0 0 0 0 
0 0 0 0 0 0 0 0 0 
0 0 0 0 0 0 1 1 1 
1 1 2 2 2 1 1 1 1 
1 1 1 1 1 1 1 1 1 
1 1 1 1 1 1 1 1 1 
2 2 2 2 2 2 1 1 1 
2 2 2 2 1 1 1 1 2 
2 2 2 1 1 1 1 2 2 
2 2 2 2 1 1 1 1 1 
1 1 1 1 1 1 1 1 1 
0 0 0 0 0 0 0 0 0 
0 0 0 0 0 0 0 0 0 
0 0 0 0 0 0 0 2 2 
2 2 2 2 2 2 1 1 1 
1 1 1 1 1 1 1 1 1 
1 1 1 1 1 1 1 1 1 
1 2 2 2 2 2 1 1 1 
1 2 2 2 2 1 1 1 1 
2 2 2 2 1 1 1 1 1 
2 2 2 2 2 1 1 1 1 
1 1 1 1 1 1 1 1 1 
1 0 0 0 0 0 0 0 0 
0 0 0 0 0 0 0 0 0 
0 0 0 0 0 0 0 0 2 
2 2 2 2 2 2 2 2 2 
2 2 2 1 1 1 1 1 1 
1 1 1 1 1 1 1 1 1 
1 1 2 2 2 2 2 1 1 
1 1 2 2 2 2 1 1 1 
1 2 2 2 2 1 1 1 1 
1 2 2 2 2 2 1 1 1 
1 1 1 1 1 1 1 1 1 
1 1 0 0 0 0 0 0 0 
0 0 0 0 0 0 0 0 0 
0 0 0 0 0 0 0 0 0 
2 2 2 2 2 2 2 2 2 
2 2 2 2 2 1 1 1 1 
2 2 2 2 2 2 2 1 1 
1 1 1 1 1 1 1 2 1 
1 1 1 2 2 2 2 1 1 
1 1 2 2 2 1 1 1 1 
1 1 1 1 1 1 1 1 1 
1 1 1 1 1 1 1 1 1 
1 1 1 0 0 0 0 0 0 
0 0 0 0 0 0 0 0 0 
0 0 0 0 0 0 0 0 0 
0 2 2 2 1 2 2 2 2 
2 2 2 2 2 2 1 1 1 
1 2 2 2 2 2 2 2 1 
1 2 2 2 1 1 1 1 2 
2 2 2 2 2 2 2 2 1 
1 1 1 2 2 2 1 1 1 
1 1 1 1 1 1 1 1 1 
1 1 1 1 1 1 1 1 1 
1 1 1 1 0 0 0 0 0 
0 0 0 0 0 0 0 0 0 
0 0 0 0 0 0 0 0 0 
0 0 2 2 2 1 1 1 1 
1 1 2 2 2 2 2 1 1 
1 1 2 2 2 2 2 2 2 
1 2 2 2 2 1 1 1 1 
2 2 2 2 2 1 1 1 1 
1 2 2 2 2 2 1 1 1 
1 2 2 2 1 1 1 1 1 
2 2 2 2 1 1 1 1 1 
1 1 1 1 1 0 0 0 0 
0 0 0 0 0 0 0 0 0 
0 0 0 0 0 0 0 0 0 
0 0 0 2 2 2 1 1 1 
1 1 1 2 2 2 2 2 1 
1 1 1 2 2 2 2 2 2 
2 2 2 2 2 2 1 1 1 
1 2 2 2 2 2 1 1 1 
1 1 2 2 2 2 2 1 1 
1 1 2 2 2 1 1 1 1 
1 2 2 2 2 1 1 1 1 
1 2 2 2 1 1 0 0 0 
0 0 0 0 0 0 0 0 0 
0 0 0 0 0 0 0 0 0 
0 0 0 0 2 2 2 1 1 
1 1 1 1 2 2 1 1 1 
1 1 1 1 1 1 1 1 1 
1 1 2 2 2 2 2 1 1 
1 1 2 2 2 2 2 1 1 
1 1 1 2 2 2 2 2 1 
1 1 1 2 2 2 1 1 1 
1 2 2 2 2 2 1 1 1 
1 1 1 2 2 2 2 0 0 
0 0 0 0 0 0 0 0 0 
0 0 0 0 0 0 0 0 0 
0 0 0 0 0 2 2 2 1 
1 1 1 2 2 2 1 1 1 
1 1 2 2 2 2 2 1 1 
1 1 1 2 2 2 2 2 1 
1 1 1 2 2 2 2 2 1 
1 1 1 1 2 2 2 2 2 
1 1 1 1 2 2 2 2 2 
2 1 2 2 2 2 2 1 1 
1 1 1 1 2 2 2 2 0 
0 0 0 0 0 0 0 0 0 
0 0 0 0 0 0 0 0 0 
0 0 0 0 0 0 2 2 2 
2 2 2 2 2 2 2 1 1 
1 1 1 2 2 2 2 2 1 
1 1 1 1 1 1 1 1 2 
1 1 1 1 1 1 1 1 1 
1 1 1 1 1 2 2 2 2 
2 1 1 1 1 2 2 2 2 
2 2 1 2 2 2 2 2 1 
1 1 1 1 1 2 2 2 2 
0 0 0 0 0 0 0 0 0 
0 0 0 0 0 0 0 0 0 
0 0 0 0 0 0 0 2 2 
2 2 2 2 2 2 2 2 1 
1 1 1 1 2 2 2 2 2 
2 1 1 1 1 1 1 1 1 
2 2 2 2 1 1 1 1 1 
1 2 1 1 1 1 2 2 2 
2 2 1 1 1 1 2 2 2 
2 2 2 1 1 2 2 2 2 
1 1 1 1 1 1 2 2 2 
2 0 0 0 0 0 0 0 0 
0 0 0 0 0 0 0 0 0 
0 0 0 0 0 0 0 0 2 
2 2 2 2 2 2 2 2 2 
1 1 1 1 1 2 2 2 2 
2 2 1 1 1 1 1 1 1 
1 2 2 2 2 1 1 1 1 
1 2 2 2 2 2 1 1 1 
1 1 2 2 2 2 2 1 1 
1 1 1 1 1 1 1 1 1 
1 1 1 1 1 1 1 2 2 
2 2 0 0 0 0 0 0 0 
0 0 0 0 0 0 0 0 0 
0 0 0 0 0 0 0 0 0 
2 2 2 2 2 2 2 2 2 
2 1 1 1 2 1 1 1 2 
2 2 2 1 1 1 1 1 1 
1 1 2 2 2 2 1 1 1 
1 1 2 2 2 2 2 1 1 
1 1 1 2 2 2 2 2 1 
1 1 1 1 1 1 1 1 1 
1 1 1 1 1 1 1 1 2 
2 2 2 0 0 0 0 0 0 
0 0 0 0 0 0 0 0 0 
0 0 0 0 0 0 0 0 0 
0 2 2 2 1 1 1 1 1 
1 1 2 2 2 2 2 1 1 
1 1 1 1 2 2 2 2 1 
1 1 1 2 2 2 2 1 1 
1 1 1 2 2 2 2 2 1 
1 1 1 1 2 2 2 2 2 
1 1 1 1 1 1 1 1 1 
1 1 1 1 1 1 1 1 1 
1 1 1 1 0 0 0 0 0 
0 0 0 0 0 0 0 0 0 
0 0 0 0 0 0 0 0 0 
0 0 2 2 2 1 1 1 1 
1 1 1 2 2 2 2 2 1 
1 1 1 1 1 2 2 2 2 
2 1 1 1 2 2 2 2 1 
1 1 1 1 2 2 2 2 2 
1 1 1 1 1 2 2 2 2 
2 1 1 1 1 1 1 1 1 
1 1 1 2 2 2 2 2 2 
1 1 1 1 1 0 0 0 0 
0 0 0 0 0 0 0 0 0 
0 0 0 0 0 0 0 0 0 
0 0 0 2 2 2 2 2 1 
1 1 1 1 2 2 2 2 2 
1 1 1 1 1 1 2 2 2 
2 2 2 1 1 2 2 2 2 
1 1 1 1 1 1 2 2 2 
2 1 1 1 1 1 1 2 2 
2 2 1 1 1 1 1 1 1 
1 1 1 1 2 2 2 2 2 
1 1 1 1 1 1 0 0 0 
0 0 0 0 0 0 0 0 0 
0 0 0 0 0 0 0 0 0 
0 0 0 0 2 2 2 2 2 
1 1 1 1 1 2 2 2 2 
2 1 1 1 1 1 1 2 2 
2 2 2 2 1 1 1 1 1 
1 1 1 1 1 1 1 1 2 
2 2 2 2 2 2 2 1 1 
2 2 2 1 1 2 2 2 1 
1 1 1 1 1 2 2 2 2 
2 1 1 1 1 1 1 0 0 
0 0 0 0 0 0 0 0 0 
0 0 0 0 0 0 0 0 0 
0 0 0 0 0 2 2 2 2 
2 1 1 1 1 1 2 2 2 
2 1 1 2 2 2 2 2 1 
1 2 2 2 2 1 1 1 1 
1 1 1 1 1 1 1 1 1 
1 1 1 2 2 2 2 2 2 
1 1 1 1 2 2 2 2 2 
1 1 1 1 1 1 2 2 2 
2 2 1 1 1 1 1 1 0 
0 0 0 0 0 0 0 0 0 
0 0 0 0 0 0 0 0 0 
0 0 0 0 0 0 2 2 2 
2 2 1 1 2 2 2 2 1 
1 1 1 1 2 2 2 2 2 
1 1 1 1 1 1 1 1 1 
1 1 2 2 2 2 2 2 1 
1 1 1 1 2 2 2 2 2 
1 1 1 1 1 2 2 2 2 
2 1 1 1 1 1 1 2 2 
2 2 2 2 2 2 2 2 2 
0 0 0 0 0 0 0 0 0 
0 0 0 0 0 0 0 0 0 
0 0 0 0 0 0 0 2 2 
2 2 1 1 1 2 2 2 2 
1 1 1 1 1 2 2 2 2 
2 1 1 1 1 1 1 1 1 
1 1 1 2 2 2 2 2 2 
1 1 1 1 1 2 2 2 2 
2 1 1 1 1 1 2 2 2 
2 2 2 2 2 1 1 2 1 
1 1 1 1 2 2 2 2 2 
2 0 0 0 0 0 0 0 0 
0 0 0 0 0 0 0 0 0 
0 0 0 0 0 0 0 0 2 
2 2 1 1 1 1 2 2 2 
2 1 1 1 1 1 2 2 2 
2 2 1 1 1 1 1 1 1 
1 1 1 1 2 2 2 2 2 
2 1 1 1 1 1 1 1 2 
2 2 1 1 1 1 1 2 2 
2 2 2 2 2 2 2 2 2 
1 1 1 1 1 2 2 2 2 
2 0 0 0 0 0 0 0 0 
0 0 0 0 0 0 0 0 0 
0 0 0 0 0 0 0 0 0 
0 2 1 1 1 1 1 2 2 
2 2 1 1 1 1 1 2 2 
2 2 2 2 1 1 1 1 1 
1 1 1 1 2 2 2 2 2 
2 2 1 1 1 1 1 2 1 
1 1 1 1 1 1 1 1 2 
2 2 1 1 2 2 2 2 2 
2 1 1 1 1 1 2 2 2 
2 0 0 0 0 0 0 0 0 
0 0 0 0 0 0 0 0 0 
0 0 0 0 0 0 0 0 0 
0 0 0 1 1 1 1 1 2 
2 2 2 1 1 1 1 1 1 
1 1 1 1 1 2 2 2 2 
2 2 1 1 1 1 2 2 1 
1 1 1 1 2 2 2 2 2 
1 1 1 1 2 2 2 2 2 
2 2 1 1 1 1 2 2 2 
2 2 1 1 1 1 1 2 2 
2 0 0 0 0 0 0 0 0 
0 0 0 0 0 0 0 0 0 
0 0 0 0 0 0 0 0 0 
0 0 0 0 0 1 1 1 1 
2 2 2 2 1 2 2 2 2 
2 1 1 1 1 1 2 2 2 
2 2 2 1 1 1 1 1 1 
1 1 1 1 2 2 2 2 2 
2 1 1 1 1 2 2 2 2 
2 2 2 1 1 1 1 2 2 
2 2 2 2 2 2 1 1 1 
2 0 0 0 0 0 0 0 0 
0 0 0 0 0 0 0 0 0 
0 0 0 0 0 0 0 0 0 
0 0 0 0 0 0 0 1 1 
1 1 1 1 1 2 2 2 2 
2 2 1 1 1 1 1 2 2 
2 2 2 1 1 1 1 1 1 
1 1 1 1 1 2 2 2 2 
2 1 1 1 1 1 2 2 2 
2 2 2 2 1 1 1 1 1 
1 2 2 2 2 2 2 1 1 
1 0 0 0 0 0 0 0 0 
0 0 0 0 0 0 0 0 0 
0 0 0 0 0 0 0 0 0 
0 0 0 0 0 0 0 0 0 
1 1 1 1 1 1 2 2 2 
2 2 2 1 1 1 1 1 2 
2 2 2 2 1 1 1 1 1 
1 1 1 1 1 1 2 2 2 
2 2 1 1 1 1 1 2 2 
2 2 2 2 2 1 1 1 1 
1 1 2 2 2 2 2 2 2 
1 0 0 0 0 0 0 0 0 
0 0 0 0 0 0 0 0 0 
0 0 0 0 0 0 0 0 0 
0 0 0 0 0 0 0 0 0 
0 0 1 1 1 1 1 2 2 
2 2 2 2 1 1 1 1 1 
2 2 2 2 2 1 1 1 1 
2 2 1 1 1 1 1 2 2 
2 2 2 1 1 1 1 1 1 
1 1 1 1 1 2 2 1 1 
1 1 1 2 2 2 2 2 2 
2 0 0 0 0 0 0 0 0 
0 0 0 0 0 0 0 0 0 
0 0 0 0 0 0 0 0 0 
0 0 0 0 0 0 0 0 0 
0 0 0 0 1 1 1 1 2 
1 1 1 1 1 2 2 2 2 
2 2 1 1 1 1 1 1 2 
2 2 2 2 2 2 2 1 1 
1 1 1 1 1 2 2 2 2 
1 1 1 1 1 1 2 2 2 
2 2 2 2 2 2 2 2 2 
2 0 0 0 0 0 0 0 0 
0 0 0 0 0 0 0 0 0 
0 0 0 0 0 0 0 0 0 
0 0 0 0 0 0 0 0 0 
0 0 0 0 0 0 1 1 1 
1 1 1 1 1 1 2 2 2 
2 2 2 1 1 1 1 1 1 
2 2 2 2 2 2 2 2 1 
1 1 1 1 1 1 2 2 2 
2 1 1 1 1 1 1 2 2 
2 2 2 2 2 2 2 2 2 
2 0 0 0 0 0 0 0 0 
0 0 0 0 0 0 0 0 0 
0 0 0 0 0 0 0 0 0 
0 0 0 0 0 0 0 0 0 
0 0 0 0 0 0 0 0 1 
1 1 1 1 1 1 1 2 2 
2 2 2 2 2 1 1 1 1 
1 2 2 2 2 2 2 2 2 
2 2 1 1 1 1 1 2 2 
2 2 2 1 1 1 1 1 2 
2 2 2 2 2 2 2 2 2 
2 0 0 0 0 0 0 0 0 
0 0 0 0 0 0 0 0 0 
0 0 0 0 0 0 0 0 0 
0 0 0 0 0 0 0 0 0 
0 0 0 0 0 0 0 0 0 
0 1 1 1 1 1 1 1 1 
2 2 2 2 2 2 1 1 1 
1 1 2 2 2 2 2 2 2 
2 2 2 2 1 1 1 1 2 
2 2 2 2 2 1 1 1 1 
1 2 2 2 2 2 2 2 2 
2 0 0 0 0 0 0 0 0 
0 0 0 0 0 0 0 0 0 
0 0 0 0 0 0 0 0 0 
0 0 0 0 0 0 0 0 0 
0 0 0 0 0 0 0 0 0 
0 0 0 1 1 1 2 2 2 
2 2 1 1 1 1 1 1 2 
1 1 1 2 2 2 2 2 2 
2 2 2 2 2 1 1 1 1 
2 2 2 2 2 2 1 1 1 
1 1 2 2 2 2 2 2 2 
2 0 0 0 0 0 0 0 0 
0 0 0 0 0 0 0 0 0 
0 0 0 0 0 0 0 0 0 
0 0 0 0 0 0 0 0 0 
0 0 0 0 0 0 0 0 0 
0 0 0 0 0 2 2 2 2 
2 2 2 1 1 1 1 1 2 
2 2 2 2 2 1 1 1 1 
1 1 1 1 2 2 2 2 2 
1 1 1 1 1 1 1 1 1 
1 1 1 2 2 2 2 2 2 
2 0 0 0 0 0 0 0 0 
0 0 0 0 0 0 0 0 0 
0 0 0 0 0 0 0 0 0 
0 0 0 0 0 0 0 0 0 
0 0 0 0 0 0 0 0 0 
0 0 0 0 0 0 0 2 2 
2 2 2 2 1 1 1 1 1 
2 2 2 2 2 2 1 1 1 
1 1 1 2 2 2 2 2 2 
2 1 1 1 1 1 1 1 1 
1 1 1 1 2 2 2 2 2 
2 0 0 0 0 0 0 0 0 
0 0 0 0 0 0 0 0 0 
0 0 0 0 0 0 0 0 0 
0 0 0 0 0 0 0 0 0 
0 0 0 0 0 0 0 0 0 
0 0 0 0 0 0 0 0 0 
2 2 2 2 2 1 1 1 1 
1 2 2 2 2 2 2 1 1 
1 1 1 1 2 2 2 2 2 
2 2 1 1 1 1 1 1 1 
1 1 1 1 1 2 2 2 2 
2 0 0 0 0 0 0 0 0 
0 0 0 0 0 0 0 0 0 
0 0 0 0 0 0 0 0 0 
0 0 0 0 0 0 0 0 0 
0 0 0 0 0 0 0 0 0 
0 0 0 0 0 0 0 0 0 
0 0 2 2 2 1 1 1 1 
1 1 2 2 2 2 2 2 1 
1 1 1 1 1 2 2 2 2 
2 2 2 1 1 1 1 1 1 
1 1 1 1 1 1 2 2 2 
2 0 0 0 0 0 0 0 0 
0 0 0 0 0 0 0 0 0 
0 0 0 0 0 0 0 0 0 
0 0 0 0 0 0 0 0 0 
0 0 0 0 0 0 0 0 0 
0 0 0 0 0 0 0 0 0 
0 0 0 0 0 0 0 0 0 
0 0 0 0 0 0 0 0 0 
0 0 0 0 0 0 0 0 0 
0 0 0 0 0 0 0 0 0 
0 0 0 0 0 0 0 0 0 
0 0 0 0 0 0 0 0 0 
0 0 0 0 0 0 0 0 0 
0 0 0 0 0 0 0 0 0 
0 0 0 0 0 0 0 0 0 
0 0 0 0 0 0 0 0 0 
0 0 0 0 0 0 0 0 0 
0 0 0 0 0 0 0 0 0 
0 0 0 0 0 0 0 0 0 
0 0 0 0 0 0 0 0 0 
0 0 0 0 0 0 0 0 0 
0 0 0 0 0 0 0 0 0 
0 0 0 0 0 0 0 0 0 
0 0 0 0 0 0 0 0 0 
0 0 0 0 0 0 0 0 0 
0 0 0 0 0 0 0 0 0 
0 0 0 0 0 0 0 0 0 
0 0 0 0 0 0 0 0 0 
0 0 0 0 0 0 0 0 0 
0 0 0 0 0 0 0 0 0 
0 0 0 0 0 0 0 0 0 
0 0 0 0 0 0 0 0 0 
0 0 0 0 0 0 0 0 0 
0 0 0 0 0 0 0 0 0 
0 0 0 0 0 0 0 0 0 
0 0 0 0 0 0 0 0 0 
0 0 0 0 0 0 0 0 0 
0 0 0 0 0 0 0 0 0 
0 0 0 0 0 0 0 0 0 
0 0 0 0 0 0 0 0 0 
0 0 0 0 0 0 0 0 0 
0 0 0 0 0 0 0 0 0 
0 0 0 0 0 0 0 0 0 
0 0 0 0 0 0 0 0 0 
0 0 0 0 0 0 0 0 0 
0 0 0 0 0 0 0 0 0 
0 0 0 0 0 0 0 0 0 
0 0 0 0 0 0 0 0 0 
0 0 0 0 0 0 0 0 0 
0 0 0 0 0 0 0 0 0 
0 0 0 0 0 0 0 0 0 
0 0 0 0 0 0 0 0 0 
0 0 0 0 0 0 0 0 0 
0 0 0 0 0 0 0 0 0 
0 0 0 0 0 0 0 0 0 
0 0 0 0 0 0 0 0 0 
0 0 0 0 0 0 0 0 0 
0 0 0 0 0 0 0 0 0 
0 0 0 0 0 0 0 0 0 
0 0 0 0 0 0 0 0 0 
0 0 0 0 0 0 0 0 0 
0 0 0 0 0 0 0 0 0 
0 0 0 0 0 0 0 0 0 
0 0 0 0 0 0 0 0 0 
0 0 0 0 0 0 0 0 0 
0 0 0 0 0 0 0 0 0 
0 0 0 0 0 0 0 0 0 
0 0 0 0 0 0 0 0 0 
0 0 0 0 0 0 0 0 0 
0 0 0 0 0 0 0 0 0 
0 0 0 0 0 0 0 0 0 
0 0 0 0 0 0 0 0 0 
0 0 0 0 0 0 0 0 0 
0 0 0 0 0 0 0 0 0 
0 0 0 0 0 0 0 0 0 
0 0 0 0 0 0 0 0 0 
0 0 0 0 0 0 0 0 0 
0 0 0 0 0 0 0 0 0 
0 0 0 0 0 0 0 0 0 
0 0 0 0 0 0 0 0 0 
0 0 0 0 0 0 0 0 0 
0 0 0 0 0 0 0 0 0 
0 0 0 0 0 0 0 0 0 
0 0 0 0 0 0 0 0 0 
0 0 0 0 0 0 0 0 0 
0 0 0 0 0 0 0 0 0 
0 0 0 0 0 0 0 0 0 
0 0 0 0 0 0 0 0 0 
0 0 0 0 0 0 0 0 0 
0 0 0 0 0 0 0 0 0 
0 0 0 0 0 0 0 0 0 
0 0 0 0 0 0 0 0 0 
0 0 0 0 0 0 0 0 0 
0 0 0 0 0 0 0 0 0 
0 0 0 0 0 0 0 0 0 
0 0 0 0 0 0 0 0 0 
0 0 0 0 0 0 0 0 0 
0 0 0 0 0 0 0 0 0 
0 0 0 0 0 0 0 0 0 
0 0 0 0 0 0 0 0 0 
0 0 0 0 0 0 0 0 0 
0 0 0 0 0 0 0 0 0 
0 0 0 0 0 0 0 0 0 
0 0 0 0 0 0 0 0 0 
0 0 0 0 0 0 0 0 0 
0 0 0 0 0 0 0 0 0 
0 0 0 0 0 0 0 0 0 
0 0 0 0 0 0 0 0 0 
0 0 0 0 0 0 0 0 0 
0 0 0 0 0 0 0 0 0 
0 0 0 0 0 0 0 0 0 
0 0 0 0 0 0 0 0 0 
0 0 0 0 0 0 0 0 0 
0 0 0 0 0 0 0 0 0 
0 
CellId 1 10000 long
0 0 0 0 0 0 0 0 0 
0 0 0 0 0 0 0 0 0 
0 0 0 0 0 0 0 0 0 
0 0 0 0 0 0 0 0 0 
0 0 0 0 0 0 0 0 0 
0 0 0 0 0 0 0 0 0 
0 0 0 0 0 0 0 0 0 
0 0 0 0 0 0 0 0 0 
0 0 0 0 0 0 0 0 0 
0 0 0 0 0 0 0 0 0 
0 0 0 0 0 0 0 0 0 
0 0 0 0 0 0 0 0 0 
0 0 0 0 0 0 0 0 0 
0 0 0 0 0 0 0 0 0 
0 0 0 0 0 0 0 0 0 
0 0 0 0 0 0 0 0 0 
0 0 0 0 0 0 0 0 0 
0 0 0 0 0 0 0 0 0 
0 0 0 0 0 0 0 0 0 
0 0 0 0 0 0 0 0 0 
0 0 0 0 0 0 0 0 0 
0 0 0 0 0 0 0 0 0 
0 0 0 0 0 0 0 0 0 
0 0 0 0 0 0 0 0 0 
0 0 0 0 0 0 0 0 0 
0 0 0 0 0 0 0 0 0 
0 0 0 0 0 0 0 0 0 
0 0 0 0 0 0 0 0 0 
0 0 0 0 0 0 0 0 0 
0 0 0 0 0 0 0 0 0 
0 0 0 0 0 0 0 0 0 
0 0 0 0 0 0 0 0 0 
0 0 0 0 0 0 0 0 0 
0 0 0 0 0 0 0 0 0 
0 0 0 0 0 0 0 0 0 
0 0 0 0 0 0 0 0 0 
0 0 0 0 0 0 0 0 0 
0 0 0 0 0 0 0 0 0 
0 0 0 0 0 0 0 0 0 
0 0 0 0 0 0 0 0 0 
0 0 0 0 0 0 0 0 0 
0 0 0 0 0 0 0 0 0 
0 0 0 0 0 0 0 0 0 
0 0 0 0 0 0 0 0 0 
0 0 0 0 0 0 0 0 0 
0 0 0 0 0 0 0 0 0 
0 0 0 0 0 0 0 0 0 
0 0 0 0 0 0 0 0 0 
0 0 0 0 0 0 0 0 0 
0 0 0 0 0 0 0 0 0 
0 0 0 0 0 0 0 0 0 
0 0 0 0 0 0 0 0 0 
0 0 0 0 0 0 0 0 0 
0 0 0 0 0 0 0 0 0 
0 0 0 0 0 0 0 0 0 
0 0 0 0 0 0 0 0 0 
0 0 0 0 0 0 0 0 0 
0 0 0 0 0 0 0 0 0 
0 0 0 0 0 0 0 0 0 
0 0 0 0 0 0 0 0 0 
0 0 0 0 0 0 0 0 0 
0 0 0 0 0 0 0 0 0 
0 0 0 0 0 0 0 0 0 
0 0 0 0 0 0 0 0 0 
0 0 0 0 0 0 0 0 0 
0 0 0 0 0 0 0 0 0 
0 0 0 0 0 0 0 0 0 
0 0 0 0 0 0 0 0 0 
0 0 0 0 0 0 0 0 0 
0 0 0 0 0 0 0 0 0 
0 0 0 0 0 0 0 0 0 
0 0 0 0 0 0 0 0 0 
0 0 0 0 0 0 0 0 0 
0 0 0 0 0 0 0 0 0 
0 0 0 0 0 0 0 0 0 
0 0 0 0 0 0 0 0 0 
0 0 0 0 0 0 0 0 0 
0 0 0 0 0 0 0 0 0 
0 0 0 0 0 0 0 0 0 
0 0 0 0 0 0 0 0 0 
0 0 0 0 0 0 0 0 0 
0 0 0 0 0 0 0 0 0 
0 0 0 0 0 0 0 0 0 
0 0 0 0 0 0 0 0 0 
0 0 0 0 0 0 0 0 0 
0 0 0 0 0 0 0 0 0 
0 0 0 0 0 0 0 0 0 
0 0 0 0 0 0 0 0 0 
0 0 0 0 0 0 0 0 0 
0 0 0 0 0 0 0 0 0 
0 0 0 0 0 0 0 0 0 
0 0 0 0 0 0 0 0 0 
0 0 0 0 0 0 0 0 0 
0 0 0 0 0 0 0 0 0 
0 0 0 0 0 0 0 0 0 
0 0 0 0 0 0 0 0 0 
0 0 0 0 0 0 0 0 0 
0 0 0 0 0 0 0 0 0 
0 0 0 0 0 0 0 0 0 
0 0 0 0 0 0 0 0 0 
0 0 0 0 0 0 0 0 0 
0 0 0 0 0 0 0 0 0 
0 0 0 0 0 0 0 0 0 
0 0 0 0 0 0 0 0 0 
0 0 0 0 0 0 0 0 0 
0 0 0 0 0 0 0 0 0 
0 0 0 0 0 0 0 0 0 
0 0 0 0 0 0 0 0 0 
0 0 0 0 0 0 0 0 0 
0 0 0 0 0 0 0 0 0 
0 0 0 0 0 0 0 0 0 
0 0 0 0 0 0 0 0 0 
0 0 0 0 0 0 0 0 0 
0 0 0 0 0 0 0 0 0 
0 0 0 0 0 0 0 0 0 
0 0 0 0 0 0 0 0 0 
0 0 0 0 0 0 0 0 0 
0 0 0 0 0 0 0 0 0 
0 0 0 0 0 0 0 0 0 
0 0 0 0 0 0 0 0 0 
0 0 0 0 0 0 0 0 0 
0 0 0 0 0 0 0 0 0 
0 0 0 0 0 0 0 0 0 
0 0 0 0 0 0 0 0 0 
0 0 0 0 0 0 0 0 0 
0 0 0 0 0 0 0 0 0 
0 0 0 0 0 0 0 0 0 
0 0 0 0 0 0 0 0 0 
0 0 0 0 0 0 0 0 0 
0 0 0 0 0 0 0 0 0 
0 0 0 0 0 0 0 0 0 
0 0 0 0 0 0 0 0 0 
0 0 0 0 0 0 0 0 0 
0 0 0 0 0 0 0 0 0 
0 0 0 0 0 0 0 0 0 
0 0 0 0 0 0 0 0 0 
0 0 0 0 0 0 0 0 0 
0 0 0 0 0 0 0 0 0 
0 0 0 0 0 0 0 0 0 
0 0 0 0 0 0 0 0 0 
0 0 0 0 0 0 0 0 0 
0 0 0 0 0 0 0 0 0 
0 0 0 0 0 0 0 0 0 
0 0 0 0 0 0 0 0 0 
0 0 0 0 0 0 0 0 0 
0 0 0 0 0 0 0 0 0 
0 0 0 0 0 0 0 0 0 
0 0 0 0 0 0 0 0 0 
0 0 0 0 0 0 0 0 0 
0 0 0 0 0 0 0 0 0 
0 0 0 0 0 0 0 0 0 
0 0 0 0 0 0 0 0 0 
0 0 0 0 0 0 0 0 0 
0 0 0 0 0 0 0 0 0 
0 0 0 0 0 0 0 0 0 
0 0 0 0 0 0 0 0 0 
0 0 0 0 0 0 0 0 0 
0 0 0 0 0 0 0 0 0 
0 0 0 0 0 0 0 0 0 
0 0 0 0 0 0 0 0 0 
0 0 0 0 0 0 0 0 0 
0 0 0 0 0 0 0 0 0 
0 0 0 0 0 0 0 0 0 
0 0 0 0 0 0 0 0 0 
0 0 0 0 0 0 0 0 0 
0 0 0 0 0 0 0 0 0 
0 0 0 0 0 0 0 0 0 
0 0 0 0 0 0 0 0 0 
0 0 0 0 0 0 0 0 0 
0 0 0 0 0 0 0 0 0 
0 1 1 1 1 1 1 2 2 
2 2 2 2 3 3 3 3 3 
4 4 4 4 4 14 14 14 14 
14 5 5 5 5 5 5 5 6 
6 6 6 6 6 6 7 7 7 
0 0 0 0 0 0 0 0 0 
0 0 0 0 0 0 0 0 0 
0 0 0 0 0 0 0 0 0 
0 0 0 0 0 0 0 0 0 
0 0 0 0 0 0 0 0 0 
0 0 0 0 0 0 0 0 0 
0 1 1 1 1 1 1 1 2 
2 2 2 2 2 3 3 3 3 
3 4 4 4 4 14 14 14 14 
14 14 5 5 5 5 5 5 5 
6 6 6 6 6 6 6 7 7 
7 7 0 0 0 0 0 0 0 
0 0 0 0 0 0 0 0 0 
0 0 0 0 0 0 0 0 0 
0 0 0 0 0 0 0 0 0 
0 0 0 0 0 0 0 0 0 
0 0 0 0 0 0 0 0 0 
0 8 1 1 1 1 1 1 1 
2 2 2 2 2 2 3 3 3 
3 3 4 4 4 4 14 14 14 
14 14 14 5 5 5 5 5 5 
5 6 6 6 6 6 6 6 7 
7 7 7 7 0 0 0 0 0 
0 0 0 0 0 0 0 0 0 
0 0 0 0 0 0 0 0 0 
0 0 0 0 0 0 0 0 0 
0 0 0 0 0 0 0 0 0 
0 0 0 0 0 0 0 0 0 
0 8 8 9 1 1 1 1 1 
1 2 2 2 2 2 2 3 3 
3 3 3 4 4 4 4 14 14 
14 14 14 14 5 5 5 5 15 
15 15 6 6 6 6 6 6 6 
7 7 7 7 7 7 0 0 0 
0 0 0 0 0 0 0 0 0 
0 0 0 0 0 0 0 0 0 
0 0 0 0 0 0 0 0 0 
0 0 0 0 0 0 0 0 0 
0 0 0 0 0 0 0 0 0 
0 8 8 8 9 9 9 9 9 
9 22 22 2 2 2 10 10 3 
3 3 3 3 4 4 4 4 14 
14 14 14 26 26 26 26 15 15 
15 15 15 16 16 16 16 16 16 
6 7 7 7 7 7 7 7 0 
0 0 0 0 0 0 0 0 0 
0 0 0 0 0 0 0 0 0 
0 0 0 0 0 0 0 0 0 
0 0 0 0 0 0 0 0 0 
0 0 0 0 0 0 0 0 0 
0 8 8 8 8 9 9 9 9 
9 9 22 22 22 22 10 10 10 
10 10 3 3 3 4 4 4 4 
13 13 13 26 26 26 26 26 15 
15 15 15 15 16 16 16 16 16 
16 17 17 17 17 17 18 18 18 
18 0 0 0 0 0 0 0 0 
0 0 0 0 0 0 0 0 0 
0 0 0 0 0 0 0 0 0 
0 0 0 0 0 0 0 0 0 
0 0 0 0 0 0 0 0 0 
0 8 8 8 8 8 9 9 9 
9 9 9 22 22 22 22 10 10 
10 10 10 10 12 12 12 12 12 
13 13 13 13 26 26 26 26 26 
15 15 15 15 15 16 16 16 16 
16 16 17 17 17 17 17 18 18 
18 18 30 0 0 0 0 0 0 
0 0 0 0 0 0 0 0 0 
0 0 0 0 0 0 0 0 0 
0 0 0 0 0 0 0 0 0 
0 0 0 0 0 0 0 0 0 
0 8 8 8 8 8 8 9 9 
9 9 9 9 22 22 22 22 10 
10 10 10 10 10 12 12 12 12 
12 13 13 13 13 26 26 26 26 
26 15 15 15 15 15 16 16 16 
16 16 16 17 17 17 17 17 18 
18 18 18 30 30 0 0 0 0 
0 0 0 0 0 0 0 0 0 
0 0 0 0 0 0 0 0 0 
0 0 0 0 0 0 0 0 0 
0 0 0 0 0 0 0 0 0 
0 20 20 8 8 8 8 8 9 
9 9 9 23 23 22 22 22 22 
10 10 10 10 10 10 12 12 12 
12 12 13 13 13 13 26 26 26 
26 26 26 15 15 15 15 15 16 
16 16 16 16 17 17 17 17 17 
18 18 18 18 30 30 30 0 0 
0 0 0 0 0 0 0 0 0 
0 0 0 0 0 0 0 0 0 
0 0 0 0 0 0 0 0 0 
0 0 0 0 0 0 0 0 0 
0 20 20 20 21 21 21 21 21 
21 23 23 23 23 23 22 22 22 
22 10 10 10 10 12 12 12 12 
12 12 12 13 13 13 39 39 39 
39 39 27 27 27 27 41 41 41 
41 28 28 28 16 17 17 17 17 
17 18 18 18 18 30 30 30 30 
0 0 0 0 0 0 0 0 0 
0 0 0 0 0 0 0 0 0 
0 0 0 0 0 0 0 0 0 
0 0 0 0 0 0 0 0 0 
0 20 20 20 20 20 21 21 21 
21 21 23 23 23 23 23 22 22 
22 11 11 11 11 11 12 12 12 
12 12 12 12 13 13 13 39 39 
39 39 39 27 27 27 27 41 41 
41 41 28 28 28 28 28 28 29 
29 29 29 29 18 18 30 30 30 
30 30 0 0 0 0 0 0 0 
0 0 0 0 0 0 0 0 0 
0 0 0 0 0 0 0 0 0 
0 0 0 0 0 0 0 0 0 
0 20 20 20 20 20 20 21 21 
21 21 21 23 23 23 23 23 11 
11 11 11 11 11 11 11 24 24 
24 24 24 24 24 13 13 13 39 
39 39 39 39 27 27 27 27 41 
41 41 41 28 28 28 28 28 28 
29 29 29 29 29 18 18 30 30 
30 30 30 30 0 0 0 0 0 
0 0 0 0 0 0 0 0 0 
0 0 0 0 0 0 0 0 0 
0 0 0 0 0 0 0 0 0 
0 20 20 20 20 20 20 20 21 
21 21 21 21 23 23 23 23 23 
11 11 11 11 11 11 11 11 24 
24 24 24 24 24 24 13 13 13 
39 39 39 39 39 27 27 27 27 
41 41 41 41 28 28 28 28 28 
28 29 29 29 29 29 18 18 30 
30 30 30 30 30 31 0 0 0 
0 0 0 0 0 0 0 0 0 
0 0 0 0 0 0 0 0 0 
0 0 0 0 0 0 0 0 0 
0 19 19 33 33 20 20 20 20 
21 21 21 21 21 23 23 23 23 
23 11 11 11 11 11 11 11 11 
24 24 24 24 24 24 24 25 25 
25 39 39 39 39 39 27 27 27 
41 41 41 41 41 42 42 42 42 
42 28 29 29 29 29 29 44 44 
44 44 44 44 44 31 31 31 0 
0 0 0 0 0 0 0 0 0 
0 0 0 0 0 0 0 0 0 
0 0 0 0 0 0 0 0 0 
0 19 19 19 33 33 33 33 34 
34 34 34 34 21 21 35 35 35 
35 35 35 49 49 49 49 36 36 
36 36 36 24 24 24 24 24 25 
25 25 25 25 25 27 27 27 27 
27 41 41 41 41 42 42 42 42 
42 42 28 29 29 29 29 29 44 
44 44 44 44 44 44 31 31 31 
31 0 0 0 0 0 0 0 0 
0 0 0 0 0 0 0 0 0 
0 0 0 0 0 0 0 0 0 
0 19 19 19 19 33 33 33 33 
34 34 34 34 34 34 35 35 35 
35 35 35 35 49 49 49 49 36 
36 36 36 36 24 24 37 37 37 
25 25 25 25 25 25 40 40 40 
40 40 56 56 56 56 42 42 42 
42 42 42 57 57 57 57 57 44 
44 44 44 44 44 44 44 31 31 
31 31 31 0 0 0 0 0 0 
0 0 0 0 0 0 0 0 0 
0 0 0 0 0 0 0 0 0 
0 19 19 19 19 19 33 33 33 
33 34 34 34 34 34 34 35 35 
35 35 35 35 35 49 49 49 49 
36 36 36 36 36 37 37 37 37 
37 25 25 25 25 25 40 40 40 
40 40 40 56 56 56 56 42 42 
42 42 42 42 57 57 57 57 57 
44 44 44 44 44 44 44 31 31 
31 31 31 31 0 0 0 0 0 
0 0 0 0 0 0 0 0 0 
0 0 0 0 0 0 0 0 0 
0 0 19 19 19 19 19 33 33 
33 33 34 34 34 34 34 34 35 
35 35 35 35 35 35 49 49 49 
49 36 36 36 36 36 37 37 37 
37 37 25 25 25 25 25 40 40 
40 40 40 40 56 56 56 56 56 
42 42 42 42 42 57 57 57 57 
58 58 58 58 58 58 59 59 31 
31 31 31 31 31 0 0 0 0 
0 0 0 0 0 0 0 0 0 
0 0 0 0 0 0 0 0 0 
0 0 0 19 19 19 19 19 33 
33 33 33 34 34 34 34 34 34 
48 48 48 48 35 35 49 49 49 
49 49 36 36 36 36 36 37 37 
37 37 37 38 38 38 38 25 53 
40 40 40 40 56 56 56 56 56 
56 56 55 55 55 55 57 57 57 
57 58 58 58 58 58 58 59 59 
59 74 74 74 74 74 0 0 0 
0 0 0 0 0 0 0 0 0 
0 0 0 0 0 0 0 0 0 
0 0 0 0 19 19 19 19 19 
33 33 33 33 46 46 47 47 47 
47 48 48 48 48 63 63 63 49 
49 49 49 36 36 51 51 51 37 
37 37 37 38 38 38 38 38 38 
53 40 40 40 40 56 56 56 56 
56 56 56 55 55 55 55 57 57 
57 57 58 58 58 58 58 58 59 
59 59 74 74 74 74 74 0 0 
0 0 0 0 0 0 0 0 0 
0 0 0 0 0 0 0 0 0 
0 0 0 0 0 32 32 32 32 
32 33 33 46 46 46 46 47 47 
47 47 48 48 48 48 63 63 63 
63 63 63 51 51 51 51 51 51 
37 37 37 37 38 38 38 38 38 
38 53 53 53 53 53 54 54 54 
54 54 54 55 55 55 55 55 57 
57 57 57 58 58 58 58 58 58 
59 59 59 74 74 74 74 74 0 
0 0 0 0 0 0 0 0 0 