# vtk DataFile Version 5.1
vtk output
ASCII
DATASET STRUCTURED_POINTS
DIMENSIONS 100 100 1
SPACING 1 1 1
ORIGIN 0 0 0
POINT_DATA 10000
FIELD FieldData 3
CellType 1 10000 char
0 0 0 0 0 0 0 0 0 
0 0 0 0 0 0 0 0 0 
0 0 0 0 0 0 0 0 0 
0 0 0 0 0 0 0 0 0 
0 0 0 0 0 0 0 0 0 
0 0 0 0 0 0 0 0 0 
0 0 0 0 0 0 0 0 0 
0 0 0 0 0 0 0 0 0 
0 0 0 0 0 0 0 0 0 
0 0 0 0 0 0 0 0 0 
0 0 0 0 0 0 0 0 0 
0 0 0 0 0 0 0 0 0 
0 0 0 0 0 0 0 0 0 
0 0 0 0 0 0 0 0 0 
0 0 0 0 0 0 0 0 0 
0 0 0 0 0 0 0 0 0 
0 0 0 0 0 0 0 0 0 
0 0 0 0 0 0 0 0 0 
0 0 0 0 0 0 0 0 0 
0 0 0 0 0 0 0 0 0 
0 0 0 0 0 0 0 0 0 
0 0 0 0 0 0 0 0 0 
0 0 0 0 0 0 0 0 0 
0 0 0 0 0 0 0 0 0 
0 0 0 0 0 0 0 0 0 
0 0 0 0 0 0 0 0 0 
0 0 0 0 0 0 0 0 0 
0 0 0 0 0 0 0 0 0 
0 0 0 0 0 0 0 0 0 
0 0 0 0 0 0 0 0 0 
0 0 0 0 0 0 0 0 0 
0 0 0 0 0 0 0 0 0 
0 0 0 0 0 0 0 0 0 
0 0 0 0 0 0 0 0 0 
0 0 0 0 0 0 0 0 0 
0 0 0 0 0 0 0 0 0 
0 0 0 0 0 0 0 0 0 
0 0 0 0 0 0 0 0 0 
0 0 0 0 0 0 0 0 0 
0 0 0 0 0 0 0 0 0 
0 0 0 0 0 0 0 0 0 
0 0 0 0 0 0 0 0 0 
0 0 0 0 0 0 0 0 0 
0 0 0 0 0 0 0 0 0 
0 0 0 0 0 0 0 0 0 
0 0 0 0 0 0 0 0 0 
0 0 0 0 0 0 0 0 0 
0 0 0 0 0 0 0 0 0 
0 0 0 0 0 0 0 0 0 
0 0 0 0 0 0 0 0 0 
0 0 0 0 0 0 0 0 0 
0 0 0 0 0 0 0 0 0 
0 0 0 0 0 0 0 0 0 
0 0 0 0 0 0 0 0 0 
0 0 0 0 0 0 0 0 0 
0 0 0 0 0 0 0 0 0 
0 0 0 0 0 0 0 0 0 
0 0 0 0 0 0 0 0 0 
0 0 0 0 0 0 0 0 0 
0 0 0 0 0 0 0 0 0 
0 0 0 0 0 0 0 0 0 
0 0 0 0 0 0 0 0 0 
0 0 0 0 0 0 0 0 0 
0 0 0 0 0 0 0 0 0 
0 0 0 0 0 0 0 0 0 
0 0 0 0 0 0 0 0 0 
0 0 0 0 0 0 0 0 0 
0 0 0 0 0 0 0 0 0 
0 0 0 0 0 0 0 0 0 
0 0 0 0 0 0 0 0 0 
0 0 0 0 0 0 0 0 0 
0 0 0 0 0 0 0 0 0 
0 0 0 0 0 0 0 0 0 
0 0 0 0 0 0 0 0 0 
0 0 0 0 0 0 0 0 0 
0 0 0 0 0 0 0 0 0 
0 0 0 0 0 0 0 0 0 
0 0 0 0 0 0 0 0 0 
0 0 0 0 0 0 0 0 0 
0 0 0 0 0 0 0 0 0 
0 0 0 0 0 0 0 0 0 
0 0 0 0 0 0 0 0 0 
0 0 0 0 0 0 0 0 0 
0 0 0 0 0 0 0 0 0 
0 0 0 0 0 0 0 0 0 
0 0 0 0 0 0 0 0 0 
0 0 0 0 0 0 0 0 0 
0 0 0 0 0 0 0 0 0 
0 0 0 0 0 0 0 0 0 
0 0 0 0 0 0 0 0 0 
0 0 0 0 0 0 0 0 0 
0 0 0 0 0 0 0 0 0 
0 0 0 0 0 0 0 0 0 
0 0 0 0 0 0 0 0 0 
0 0 0 0 0 0 0 0 0 
0 0 0 0 0 0 0 0 0 
0 0 0 0 0 0 0 0 0 
0 0 0 0 0 0 0 0 0 
0 0 0 0 0 0 0 0 0 
0 0 0 0 0 0 0 0 0 
0 0 0 0 0 0 0 0 0 
0 0 0 0 0 0 0 0 0 
0 0 0 0 0 0 0 0 0 
0 0 0 0 0 0 0 0 0 
0 0 0 0 0 0 0 0 0 
0 0 0 0 0 0 0 0 0 
0 0 0 0 0 0 0 0 0 
0 0 0 0 0 0 0 0 0 
0 0 0 0 0 0 0 0 0 
0 0 0 0 0 0 0 0 0 
0 0 0 0 0 0 0 0 0 
0 0 0 0 0 0 0 0 0 
0 0 0 0 0 0 0 0 0 
0 0 0 0 0 0 0 0 0 
0 0 0 0 0 0 0 0 0 
0 0 0 0 0 0 0 0 0 
0 0 0 0 0 0 0 0 0 
0 0 0 0 0 0 0 0 0 
0 0 0 0 0 0 0 0 0 
0 0 0 0 0 0 0 0 0 
0 0 0 0 0 0 0 0 0 
0 0 0 0 0 0 0 0 0 
0 0 0 0 0 0 0 0 0 
0 0 0 0 0 0 0 0 0 
0 0 0 0 0 0 0 0 0 
0 0 0 0 0 0 0 0 0 
0 0 0 0 0 0 0 0 0 
0 0 0 0 0 0 0 0 0 
0 0 0 0 0 0 0 0 0 
0 0 0 0 0 0 0 0 0 
0 0 0 0 0 0 0 0 0 
0 0 0 0 0 0 0 0 0 
0 0 0 0 0 0 0 0 0 
0 0 0 0 0 0 0 0 0 
0 0 0 0 0 0 0 0 0 
0 0 0 0 0 0 0 0 0 
0 0 0 0 0 0 0 0 0 
0 0 0 0 0 0 0 0 0 
0 0 0 0 0 0 0 0 0 
0 0 0 0 0 0 0 0 0 
0 0 0 0 0 0 0 0 0 
0 0 0 0 0 0 0 0 0 
0 0 0 0 0 0 0 0 0 
0 0 0 0 0 0 0 0 0 
0 0 0 0 0 0 0 0 0 
0 0 0 0 0 0 0 0 0 
0 0 0 0 0 0 0 0 0 
0 0 0 0 0 0 0 0 0 
0 0 0 0 0 0 0 0 0 
0 0 0 0 0 0 0 0 0 
0 0 0 0 0 0 0 0 0 
0 0 0 0 0 0 0 0 0 
0 0 0 0 0 0 0 0 0 
0 0 0 0 0 0 0 0 0 
0 0 0 0 0 0 0 0 0 
0 0 0 0 0 0 0 0 0 
0 0 0 0 0 0 0 0 0 
0 0 0 0 0 0 0 0 0 
0 0 0 0 0 0 0 0 0 
0 0 0 0 0 0 0 0 0 
0 0 0 0 0 0 0 0 0 
0 0 0 0 0 0 0 0 0 
0 0 0 0 0 0 0 0 0 
0 0 0 0 0 0 0 0 0 
0 0 0 0 0 0 0 0 0 
0 0 0 0 0 0 0 0 0 
0 0 0 0 0 0 0 0 0 
0 0 0 0 0 0 0 0 0 
0 0 0 0 0 0 0 0 0 
0 0 0 0 0 0 0 0 0 
0 2 2 1 1 1 2 2 2 
2 2 2 1 1 2 2 2 1 
1 2 2 2 2 2 1 1 1 
2 1 1 1 1 1 1 2 2 
2 2 1 1 1 1 2 2 0 
0 0 0 0 0 0 0 0 0 
0 0 0 0 0 0 0 0 0 
0 0 0 0 0 0 0 0 0 
0 0 0 0 0 0 0 0 0 
0 0 0 0 0 0 0 0 0 
0 0 0 0 0 0 0 0 0 
0 2 2 2 1 1 1 2 2 
2 2 2 1 1 1 2 2 2 
1 1 2 2 2 2 2 1 1 
1 2 1 1 1 1 1 1 2 
2 2 2 1 1 1 1 2 2 
2 0 0 0 0 0 0 0 0 
0 0 0 0 0 0 0 0 0 
0 0 0 0 0 0 0 0 0 
0 0 0 0 0 0 0 0 0 
0 0 0 0 0 0 0 0 0 
0 0 0 0 0 0 0 0 0 
0 2 2 2 2 1 1 1 2 
2 2 2 2 1 1 1 2 2 
2 1 1 2 2 2 2 2 1 
1 1 2 1 1 1 1 1 1 
2 2 2 2 1 1 1 1 2 
2 2 2 0 0 0 0 0 0 
0 0 0 0 0 0 0 0 0 
0 0 0 0 0 0 0 0 0 
0 0 0 0 0 0 0 0 0 
0 0 0 0 0 0 0 0 0 
0 0 0 0 0 0 0 0 0 
0 1 2 2 2 2 1 1 1 
2 2 2 2 2 1 1 1 2 
2 2 1 1 2 2 2 2 1 
1 1 1 2 2 1 1 1 1 
1 2 2 2 2 1 1 1 1 
2 2 2 2 2 0 0 0 0 
0 0 0 0 0 0 0 0 0 
0 0 0 0 0 0 0 0 0 
0 0 0 0 0 0 0 0 0 
0 0 0 0 0 0 0 0 0 
0 0 0 0 0 0 0 0 0 
0 1 1 1 2 2 2 1 1 
1 1 2 2 2 1 1 1 1 
2 2 2 1 1 2 2 2 1 
1 1 1 1 2 2 2 1 1 
1 1 2 2 2 2 1 1 1 
1 2 2 2 2 2 1 0 0 
0 0 0 0 0 0 0 0 0 
0 0 0 0 0 0 0 0 0 
0 0 0 0 0 0 0 0 0 
0 0 0 0 0 0 0 0 0 
0 0 0 0 0 0 0 0 0 
0 2 1 1 1 2 2 2 1 
1 1 1 1 2 2 1 1 1 
1 2 2 2 1 1 1 2 2 
1 1 1 1 1 2 2 2 2 
2 2 2 2 2 2 2 1 1 
1 1 2 2 2 2 1 1 2 
0 0 0 0 0 0 0 0 0 
0 0 0 0 0 0 0 0 0 
0 0 0 0 0 0 0 0 0 
0 0 0 0 0 0 0 0 0 
0 0 0 0 0 0 0 0 0 
0 2 2 1 1 1 2 2 2 
2 1 1 1 1 1 1 1 1 
1 1 2 2 2 1 1 1 1 
2 1 1 1 1 1 2 2 2 
2 2 1 1 1 1 1 1 1 
1 1 1 2 2 1 1 1 2 
2 2 0 0 0 0 0 0 0 
0 0 0 0 0 0 0 0 0 
0 0 0 0 0 0 0 0 0 
0 0 0 0 0 0 0 0 0 
0 0 0 0 0 0 0 0 0 
0 2 2 2 1 1 1 1 2 
2 2 2 2 2 2 2 2 2 
2 2 1 2 2 2 1 1 1 
1 2 2 2 2 2 2 2 2 
2 2 2 1 1 1 1 1 2 
2 2 2 2 1 1 1 1 1 
2 2 2 2 0 0 0 0 0 
0 0 0 0 0 0 0 0 0 
0 0 0 0 0 0 0 0 0 
0 0 0 0 0 0 0 0 0 
0 0 0 0 0 0 0 0 0 
0 2 2 2 2 1 1 1 1 
1 1 1 1 1 2 2 2 2 
2 2 2 1 2 2 2 1 1 
1 1 2 2 2 2 2 1 1 
1 1 2 2 1 1 1 1 1 
2 2 2 2 2 1 1 1 1 
1 2 2 2 2 2 0 0 0 
0 0 0 0 0 0 0 0 0 
0 0 0 0 0 0 0 0 0 
0 0 0 0 0 0 0 0 0 
0 0 0 0 0 0 0 0 0 
0 2 2 2 2 2 1 1 1 
2 2 2 1 1 1 1 2 2 
2 2 2 1 1 1 1 2 1 
1 1 1 2 2 2 2 2 1 
1 1 1 1 2 1 1 1 1 
1 2 2 2 2 2 1 1 1 
1 1 2 2 2 2 2 2 0 
0 0 0 0 0 0 0 0 0 
0 0 0 0 0 0 0 0 0 
0 0 0 0 0 0 0 0 0 
0 0 0 0 0 0 0 0 0 
0 2 2 2 2 2 2 1 2 
2 2 2 2 1 1 1 1 2 
2 2 2 2 1 1 1 1 2 
2 2 2 2 1 2 2 2 2 
1 1 1 1 1 1 1 1 1 
1 2 2 2 2 2 2 1 1 
1 1 1 2 2 2 2 2 1 
1 0 0 0 0 0 0 0 0 
0 0 0 0 0 0 0 0 0 
0 0 0 0 0 0 0 0 0 
0 0 0 0 0 0 0 0 0 
0 1 1 2 2 2 2 2 1 
2 2 2 2 2 1 1 1 1 
1 1 2 1 1 1 1 1 1 
2 2 2 2 2 1 1 2 2 
2 1 1 1 1 1 2 2 2 
2 2 2 2 2 2 2 2 2 
2 2 2 2 1 1 1 1 1 
1 2 2 0 0 0 0 0 0 
0 0 0 0 0 0 0 0 0 
0 0 0 0 0 0 0 0 0 
0 0 0 0 0 0 0 0 0 
0 1 1 1 1 1 1 1 1 
1 2 2 2 2 2 1 1 1 
1 1 1 2 1 1 1 1 1 
1 2 2 2 2 2 1 1 1 
2 2 1 1 1 1 2 2 2 
2 1 1 1 1 1 1 1 1 
2 2 2 2 2 2 1 1 1 
1 1 2 2 2 0 0 0 0 
0 0 0 0 0 0 0 0 0 
0 0 0 0 0 0 0 0 0 
0 0 0 0 0 0 0 0 0 
0 2 2 1 1 1 1 1 1 
1 1 2 2 2 2 2 2 2 
2 2 2 2 2 2 1 1 1 
1 1 2 2 2 2 2 1 1 
1 1 1 1 2 2 2 2 2 
2 2 1 1 1 1 1 1 1 
1 2 2 2 2 2 2 1 1 
1 1 1 2 2 2 2 0 0 
0 0 0 0 0 0 0 0 0 
0 0 0 0 0 0 0 0 0 
0 0 0 0 0 0 0 0 0 
0 2 2 2 2 1 1 1 1 
1 1 1 2 1 1 1 1 1 
1 2 2 2 2 2 2 1 1 
1 1 1 2 2 2 2 1 1 
1 1 1 1 1 2 2 2 2 
2 2 2 1 1 1 1 1 1 
1 1 2 2 2 2 2 2 1 
1 1 1 2 2 2 2 2 2 
0 0 0 0 0 0 0 0 0 
0 0 0 0 0 0 0 0 0 
0 0 0 0 0 0 0 0 0 
0 2 2 2 2 2 1 2 2 
2 2 2 2 2 1 1 1 1 
1 1 2 2 2 2 2 2 2 
2 2 2 2 2 2 2 2 1 
1 1 1 1 1 1 2 2 2 
2 2 2 2 1 1 1 1 1 
1 1 1 2 2 2 2 2 2 
1 1 1 1 2 2 2 2 2 
2 2 0 0 0 0 0 0 0 
0 0 0 0 0 0 0 0 0 
0 0 0 0 0 0 0 0 0 
0 2 2 2 2 2 1 1 1 
1 2 2 2 2 2 2 1 1 
1 1 1 2 2 2 2 2 1 
2 2 2 2 2 1 1 1 2 
2 2 2 2 2 2 2 1 1 
1 1 1 1 1 2 2 2 2 
2 2 2 2 1 1 1 1 1 
1 2 2 2 2 2 1 1 1 
1 1 1 1 0 0 0 0 0 
0 0 0 0 0 0 0 0 0 
0 0 0 0 0 0 0 0 0 
0 0 2 2 2 2 2 1 1 
1 1 1 2 2 2 2 2 1 
1 1 1 1 2 2 1 1 1 
1 1 2 2 2 2 1 1 1 
2 2 2 2 2 2 2 2 1 
1 1 1 1 1 1 2 2 2 
2 2 2 2 2 1 1 1 1 
1 1 2 2 2 2 2 1 1 
1 1 1 1 1 0 0 0 0 
0 0 0 0 0 0 0 0 0 
0 0 0 0 0 0 0 0 0 
0 0 0 2 2 2 2 2 1 
1 1 1 1 2 2 2 2 2 
2 1 1 1 1 1 1 1 1 
1 1 1 2 2 2 2 1 1 
1 2 2 2 2 2 2 2 2 
1 1 1 1 1 1 1 2 2 
2 2 2 2 2 2 1 1 1 
1 1 1 2 2 2 2 2 2 
1 1 1 1 1 1 0 0 0 
0 0 0 0 0 0 0 0 0 
0 0 0 0 0 0 0 0 0 
0 0 0 0 2 2 2 2 2 
1 1 1 1 1 2 2 1 1 
1 1 1 2 2 2 2 2 1 
1 1 1 1 2 2 2 2 1 
1 1 2 2 1 1 1 1 1 
1 1 1 1 1 1 1 1 2 
2 1 1 1 1 1 2 1 1 
1 1 1 1 2 2 2 2 2 
2 1 1 1 1 1 1 0 0 
0 0 0 0 0 0 0 0 0 
0 0 0 0 0 0 0 0 0 
0 0 0 0 0 1 1 1 1 
1 1 1 1 1 1 1 1 1 
1 1 1 1 2 2 2 2 2 
1 1 1 1 1 2 2 2 1 
1 1 1 2 1 1 1 1 1 
1 1 2 2 2 2 2 2 2 
1 1 1 1 1 1 1 2 1 
1 1 1 1 1 2 2 2 1 
1 1 2 2 2 2 2 2 0 
0 0 0 0 0 0 0 0 0 
0 0 0 0 0 0 0 0 0 
0 0 0 0 0 0 1 1 1 
1 1 2 2 2 2 2 2 1 
1 1 1 1 1 2 2 2 2 
2 2 1 1 1 1 1 1 1 
1 1 1 1 1 1 1 1 1 
1 1 1 2 2 2 2 2 2 
2 1 1 1 1 1 1 2 2 
2 2 2 2 2 2 1 1 1 
1 1 1 2 2 2 2 2 2 
0 0 0 0 0 0 0 0 0 
0 0 0 0 0 0 0 0 0 
0 0 0 0 0 0 0 1 1 
1 1 1 2 2 2 2 2 2 
2 1 1 1 1 1 2 2 2 
2 2 2 1 2 2 2 2 2 
1 1 1 1 2 2 2 2 2 
1 1 1 1 2 2 2 2 2 
2 2 1 1 1 1 1 1 2 
2 2 2 2 2 2 2 1 1 
1 1 1 1 2 2 2 2 2 
2 0 0 0 0 0 0 0 0 
0 0 0 0 0 0 0 0 0 
0 0 0 0 0 0 0 0 1 
1 1 1 1 2 2 2 2 2 
2 2 2 2 2 2 2 2 2 
2 2 2 1 1 1 2 2 2 
2 2 1 1 2 2 2 2 2 
2 2 2 2 1 2 2 2 2 
2 2 2 2 1 1 1 2 1 
1 1 2 2 2 2 2 2 1 
1 1 1 1 1 2 2 2 2 
2 2 0 0 0 0 0 0 0 
0 0 0 0 0 0 0 0 0 
0 0 0 0 0 0 0 0 0 
1 1 1 2 2 1 1 1 1 
1 2 2 2 2 1 1 1 1 
1 1 2 1 1 1 1 2 2 
2 2 2 2 2 2 2 2 2 
2 2 2 2 2 1 1 1 1 
2 1 1 1 1 1 2 2 2 
1 1 1 1 2 2 2 2 2 
1 1 1 1 1 1 2 2 2 
2 2 2 0 0 0 0 0 0 
0 0 0 0 0 0 0 0 0 
0 0 0 0 0 0 0 0 0 
0 2 2 2 2 2 1 1 1 
1 1 1 1 1 1 1 1 1 
1 1 1 2 1 1 1 1 1 
2 2 2 2 1 1 2 2 1 
1 1 1 1 2 2 1 1 1 
1 2 1 1 1 1 1 2 2 
2 1 1 1 1 2 2 1 1 
1 1 2 2 2 2 2 1 1 
1 1 1 2 0 0 0 0 0 
0 0 0 0 0 0 0 0 0 
0 0 0 0 0 0 0 0 0 
0 0 2 2 2 2 2 1 1 
1 1 1 1 2 2 1 1 1 
1 1 1 2 2 1 1 1 1 
1 2 2 2 2 1 1 1 1 
1 1 1 1 1 1 1 1 1 
1 1 1 1 1 1 1 1 2 
2 2 1 1 1 1 2 1 1 
1 1 1 2 2 2 2 2 1 
1 1 1 1 1 0 0 0 0 
0 0 0 0 0 0 0 0 0 
0 0 0 0 0 0 0 0 0 
0 0 0 2 2 2 2 2 1 
1 1 1 1 2 2 2 2 1 
1 1 1 2 2 2 1 1 1 
1 1 2 2 2 1 1 1 1 
2 1 1 1 1 1 1 1 1 
1 1 1 2 1 1 1 1 1 
2 2 2 1 1 1 1 1 1 
1 1 1 1 2 2 2 2 2 
1 1 1 1 1 1 0 0 0 
0 0 0 0 0 0 0 0 0 
0 0 0 0 0 0 0 0 0 
0 0 0 0 2 2 2 2 2 
1 1 2 2 2 2 2 2 2 
1 2 2 2 2 2 2 1 1 
1 1 1 1 1 1 1 1 1 
1 2 2 2 2 2 2 2 2 
1 1 1 2 2 1 1 1 1 
1 2 2 2 2 2 2 2 2 
1 1 1 1 1 2 2 2 2 
2 1 1 1 1 1 1 0 0 
0 0 0 0 0 0 0 0 0 
0 0 0 0 0 0 0 0 0 
0 0 0 0 0 2 2 2 2 
2 2 2 2 2 2 2 1 1 
1 1 2 2 2 2 2 2 1 
2 2 2 2 2 1 1 1 1 
1 1 2 2 2 2 2 2 2 
2 2 1 2 2 2 2 2 2 
2 1 1 1 1 2 2 2 2 
2 1 1 1 1 1 2 2 2 
2 2 1 1 1 1 1 1 0 
0 0 0 0 0 0 0 0 0 
0 0 0 0 0 0 0 0 0 
0 0 0 0 0 0 1 1 1 
1 1 1 2 2 2 1 1 1 
1 1 1 2 2 2 2 2 1 
1 1 1 2 2 2 1 1 1 
1 1 1 2 2 2 2 2 2 
2 2 2 1 2 2 2 2 2 
2 2 1 1 1 1 1 2 2 
1 1 1 1 2 2 2 2 1 
1 1 1 2 2 2 2 2 2 
0 0 0 0 0 0 0 0 0 
0 0 0 0 0 0 0 0 0 
0 0 0 0 0 0 0 1 1 
1 1 1 1 2 2 2 1 1 
1 1 1 1 2 2 2 2 2 
1 1 1 1 2 2 2 1 2 
2 2 2 2 1 1 1 1 1 
1 1 1 1 1 1 2 2 2 
2 2 2 1 1 1 1 1 1 
1 1 1 1 1 1 2 2 1 
1 1 1 1 1 2 2 2 2 
2 0 0 0 0 0 0 0 0 
0 0 0 0 0 0 0 0 0 
0 0 0 0 0 0 0 0 1 
1 1 1 1 1 1 1 1 1 
1 1 1 1 1 1 1 1 1 
2 1 1 1 1 2 2 2 1 
2 2 2 2 2 1 1 1 2 
2 2 1 1 1 1 1 2 2 
2 2 2 2 1 1 1 1 1 
2 2 1 1 1 1 1 1 1 
1 1 1 1 1 1 2 2 2 
2 2 0 0 0 0 0 0 0 
0 0 0 0 0 0 0 0 0 
0 0 0 0 0 0 0 0 0 
1 1 1 1 1 1 2 2 2 
2 2 2 2 2 2 1 1 1 
1 1 1 1 1 1 2 2 2 
1 2 2 2 2 2 1 1 1 
2 2 2 1 1 1 1 1 1 
1 1 1 1 1 1 1 1 1 
2 2 2 1 1 1 1 1 2 
2 2 1 1 1 1 1 2 2 
2 2 2 0 0 0 0 0 0 
0 0 0 0 0 0 0 0 0 
0 0 0 0 0 0 0 0 0 
0 1 1 1 1 1 2 2 2 
2 2 2 2 2 2 2 1 1 
1 1 1 2 1 1 1 2 2 
2 1 1 2 2 2 2 1 1 
1 2 2 2 2 1 1 1 1 
2 1 1 1 1 1 2 2 2 
2 2 2 2 1 1 1 1 2 
2 2 2 2 1 1 1 1 2 
2 2 2 2 0 0 0 0 0 
0 0 0 0 0 0 0 0 0 
0 0 0 0 0 0 0 0 0 
0 0 2 2 2 2 1 1 1 
1 1 1 2 2 2 2 2 1 
1 1 1 1 2 2 1 2 2 
2 2 1 1 1 2 2 2 1 
1 1 2 2 2 2 2 1 1 
2 2 1 1 1 1 1 2 2 
2 2 2 2 2 2 2 2 1 
1 1 1 2 2 2 2 2 1 
2 2 2 2 2 0 0 0 0 
0 0 0 0 0 0 0 0 0 
0 0 0 0 0 0 0 0 0 
0 0 0 2 2 2 2 1 1 
1 1 1 1 1 2 2 2 2 
1 1 1 1 1 2 2 1 1 
1 1 2 1 1 1 1 2 2 
1 1 1 2 2 2 2 2 2 
2 2 2 1 1 1 1 1 1 
1 1 1 2 2 2 2 2 2 
1 1 1 1 2 2 2 2 2 
1 1 1 1 1 1 0 0 0 
0 0 0 0 0 0 0 0 0 
0 0 0 0 0 0 0 0 0 
0 0 0 0 2 2 2 2 1 
1 1 1 1 1 1 2 1 1 
1 1 2 2 2 2 2 2 1 
1 1 1 1 1 1 1 1 2 
1 1 1 1 2 2 2 2 1 
1 2 2 2 1 1 1 1 2 
1 1 1 1 1 1 1 1 1 
2 1 1 1 1 2 2 2 2 
1 1 1 1 1 1 1 0 0 
0 0 0 0 0 0 0 0 0 
0 0 0 0 0 0 0 0 0 
0 0 0 0 0 2 2 2 2 
2 1 1 1 1 1 1 1 1 
1 1 1 1 2 2 2 2 2 
1 1 1 1 1 2 1 1 1 
2 2 2 2 2 1 1 1 1 
1 1 2 2 2 2 2 2 1 
2 1 1 1 1 1 1 1 1 
1 2 1 1 1 1 2 2 2 
2 1 1 1 1 1 1 1 0 
0 0 0 0 0 0 0 0 0 
0 0 0 0 0 0 0 0 0 
0 0 0 0 0 0 2 2 2 
2 2 2 2 2 2 2 2 1 
1 1 1 1 1 2 2 2 2 
2 1 1 1 1 1 2 1 1 
1 2 2 2 2 2 1 1 1 
1 1 1 2 2 2 2 2 2 
1 2 1 1 1 1 2 1 1 
1 1 1 1 1 1 1 2 2 
2 2 1 1 1 1 1 1 1 
0 0 0 0 0 0 0 0 0 
0 0 0 0 0 0 0 0 0 
0 0 0 0 0 0 0 2 1 
1 1 1 1 1 1 1 1 1 
1 2 2 1 1 1 2 2 2 
2 2 1 1 1 1 2 2 1 
1 2 2 2 2 2 2 1 1 
1 1 1 1 2 2 2 2 2 
2 1 2 2 2 2 2 2 1 
1 1 1 1 2 2 2 1 1 
1 1 1 2 2 2 2 2 2 
2 0 0 0 0 0 0 0 0 
0 0 0 0 0 0 0 0 0 
0 0 0 0 0 0 0 0 2 
2 2 1 1 1 2 1 1 1 
1 1 1 2 1 1 1 1 1 
1 1 1 1 2 2 2 2 2 
1 1 2 2 2 2 2 2 1 
1 1 1 1 1 1 1 1 1 
1 1 1 2 2 2 2 1 1 
1 1 1 1 1 2 2 2 1 
1 1 1 1 2 2 2 2 2 
2 2 0 0 0 0 0 0 0 
0 0 0 0 0 0 0 0 0 
0 0 0 0 0 0 0 0 0 
2 2 2 1 1 1 2 2 1 
1 1 1 1 2 2 2 2 2 
1 1 1 1 2 2 2 2 2 
2 2 2 2 2 2 2 2 2 
1 2 2 2 2 2 2 1 1 
1 1 1 1 2 2 2 1 1 
1 1 1 2 2 2 2 2 1 
1 1 1 1 1 2 2 2 2 
2 2 2 0 0 0 0 0 0 
0 0 0 0 0 0 0 0 0 
0 0 0 0 0 0 0 0 0 
0 2 2 2 1 1 1 2 2 
2 1 1 1 1 2 2 2 2 
2 1 1 1 1 2 2 2 2 
2 2 1 1 1 1 1 1 1 
1 1 2 2 2 2 2 2 1 
1 1 1 1 1 2 2 2 1 
1 1 1 1 2 2 2 2 2 
1 1 1 1 1 1 2 2 2 
2 2 2 2 0 0 0 0 0 
0 0 0 0 0 0 0 0 0 
0 0 0 0 0 0 0 0 0 
0 0 2 2 2 1 1 1 2 
2 2 2 2 1 1 2 2 2 
2 2 1 1 1 1 2 2 2 
2 2 1 1 2 2 1 1 1 
1 1 1 2 2 2 2 2 2 
1 1 1 1 1 1 2 2 2 
1 1 1 1 1 2 2 2 2 
2 1 1 1 2 2 2 1 1 
1 1 1 1 1 0 0 0 0 
0 0 0 0 0 0 0 0 0 
0 0 0 0 0 0 0 0 0 
0 0 0 2 2 2 1 1 1 
2 2 2 2 2 2 1 2 2 
2 2 2 1 1 1 1 1 2 
1 1 1 1 2 2 2 1 1 
1 1 1 1 1 2 2 2 2 
2 1 1 1 2 2 2 1 1 
1 1 1 1 1 1 1 1 1 
2 2 1 1 2 2 2 2 1 
1 1 1 1 1 1 0 0 0 
0 0 0 0 0 0 0 0 0 
0 0 0 0 0 0 0 0 0 
0 0 0 0 2 1 1 1 1 
1 2 2 2 2 2 2 1 2 
2 2 2 2 1 1 1 1 1 
2 1 1 1 1 2 2 2 2 
1 1 1 1 1 1 2 2 2 
2 2 2 2 2 2 2 2 1 
1 1 1 2 2 1 1 1 1 
1 2 2 1 2 2 2 2 2 
1 1 1 1 2 2 2 0 0 
0 0 0 0 0 0 0 0 0 
0 0 0 0 0 0 0 0 0 
0 0 0 0 0 2 2 2 2 
2 2 1 1 1 1 1 1 1 
2 1 1 1 1 2 2 2 2 
2 2 1 1 1 1 2 2 2 
2 1 1 2 2 2 2 1 1 
1 1 1 1 2 2 2 2 2 
1 1 1 1 2 2 1 1 1 
1 1 2 2 1 2 2 2 2 
2 1 1 1 2 2 2 2 0 
0 0 0 0 0 0 0 0 0 
0 0 0 0 0 0 0 0 0 
0 0 0 0 0 0 2 2 2 
2 2 2 1 1 1 1 1 1 
1 2 1 1 1 1 2 2 2 
2 2 2 1 1 1 1 2 2 
2 2 1 2 2 2 2 2 1 
1 1 1 1 1 2 2 2 2 
2 1 1 1 1 2 2 1 1 
1 1 1 2 2 1 2 2 2 
2 2 1 1 1 2 2 2 2 
0 0 0 0 0 0 0 0 0 
0 0 0 0 0 0 0 0 0 
0 0 0 0 0 0 0 2 2 
2 2 2 2 1 1 1 1 1 
1 1 2 1 1 1 1 2 2 
2 2 2 2 1 1 1 1 2 
2 2 2 2 2 2 2 2 2 
1 1 1 1 1 1 2 2 2 
2 2 1 1 1 1 2 2 2 
1 1 1 1 2 2 1 1 1 
1 2 1 1 1 1 2 2 2 
2 0 0 0 0 0 0 0 0 
0 0 0 0 0 0 0 0 0 
0 0 0 0 0 0 0 0 2 
2 2 2 2 2 1 1 1 1 
1 1 1 2 1 1 1 1 2 
2 2 2 2 2 1 1 1 1 
2 2 2 1 1 2 2 2 2 
1 1 1 1 1 1 1 2 2 
2 2 2 1 1 1 1 2 2 
2 2 2 2 1 1 1 1 1 
1 1 2 2 2 2 2 2 2 
2 2 0 0 0 0 0 0 0 
0 0 0 0 0 0 0 0 0 
0 0 0 0 0 0 0 0 0 
2 2 2 2 2 2 2 2 2 
2 2 2 2 2 1 1 1 1 
2 2 1 1 1 1 2 2 2 
2 1 1 1 1 1 1 1 2 
1 1 1 1 2 2 2 2 1 
1 1 1 2 1 1 1 1 2 
2 2 2 1 1 1 1 1 2 
1 1 1 2 2 2 2 1 1 
2 2 2 0 0 0 0 0 0 
0 0 0 0 0 0 0 0 0 
0 0 0 0 0 0 0 0 0 
0 1 1 1 1 1 1 1 2 
2 2 2 2 2 2 1 1 1 
1 2 1 1 1 1 1 2 2 
2 2 1 1 1 1 1 1 1 
2 2 2 2 1 2 2 2 2 
1 1 1 1 2 2 2 2 1 
2 2 2 2 1 1 1 1 1 
2 1 1 1 2 2 2 2 1 
1 2 2 2 0 0 0 0 0 
0 0 0 0 0 0 0 0 0 
0 0 0 0 0 0 0 0 0 
0 0 1 1 1 1 1 1 1 
2 2 2 2 2 2 2 1 2 
2 2 1 1 1 1 1 1 2 
2 2 2 1 1 1 1 1 1 
1 2 2 2 2 1 2 2 2 
2 1 1 1 1 2 2 2 2 
1 2 2 2 2 1 1 1 1 
1 2 1 1 1 2 2 2 2 
1 1 1 1 1 0 0 0 0 
0 0 0 0 0 0 0 0 0 
0 0 0 0 0 0 0 0 0 
0 0 0 1 1 1 1 1 1 
1 2 2 2 2 2 2 2 1 
2 2 2 1 1 1 1 1 2 
2 2 2 2 2 2 2 2 1 
1 1 2 2 2 2 2 2 2 
2 2 1 1 1 1 2 2 2 
2 1 1 1 1 1 1 1 1 
1 1 2 1 1 1 2 2 2 
2 1 1 1 1 1 0 0 0 
0 0 0 0 0 0 0 0 0 
0 0 0 0 0 0 0 0 0 
0 0 0 0 1 1 1 1 1 
1 1 1 1 1 1 1 1 1 
1 2 2 2 1 1 1 1 2 
2 2 2 2 1 2 2 2 2 
2 1 1 2 2 2 2 1 2 
2 2 2 1 1 1 1 2 2 
2 2 1 1 1 1 1 2 2 
2 2 2 2 2 1 1 1 2 
2 1 1 1 1 1 1 0 0 
0 0 0 0 0 0 0 0 0 
0 0 0 0 0 0 0 0 0 
0 0 0 0 0 2 2 2 2 
2 2 2 2 2 1 1 1 1 
1 1 2 2 2 2 2 2 2 
2 2 2 2 2 1 2 2 2 
2 2 1 1 2 2 2 2 1 
2 2 2 2 1 1 1 1 2 
2 2 1 1 1 1 1 1 2 
2 2 2 2 2 2 2 1 1 
1 1 1 1 1 1 1 1 0 
0 0 0 0 0 0 0 0 0 
0 0 0 0 0 0 0 0 0 
0 0 0 0 0 0 2 2 2 
2 2 2 2 2 2 2 1 1 
1 1 1 2 2 2 2 2 1 
1 1 1 1 1 2 1 2 2 
2 2 2 1 1 2 2 2 1 
1 1 1 2 1 1 1 1 1 
2 2 2 1 1 1 1 1 1 
2 2 2 2 2 2 2 2 2 
2 2 2 2 2 2 2 2 2 
0 0 0 0 0 0 0 0 0 
0 0 0 0 0 0 0 0 0 
0 0 0 0 0 0 0 2 2 
2 2 2 2 2 2 2 2 1 
1 1 1 1 2 2 2 2 2 
1 1 1 1 1 1 2 1 1 
1 1 1 2 2 2 2 1 1 
1 1 1 1 2 2 2 2 2 
2 2 2 2 1 1 1 1 1 
1 2 1 1 1 1 1 1 1 
1 1 2 2 2 2 2 2 2 
2 0 0 0 0 0 0 0 0 
0 0 0 0 0 0 0 0 0 
0 0 0 0 0 0 0 0 0 
1 1 1 1 1 1 1 1 1 
1 1 1 1 1 2 2 2 2 
2 1 1 1 1 1 2 2 1 
1 1 1 2 2 2 2 2 1 
1 1 1 1 1 2 2 2 2 
2 1 1 1 1 2 2 2 2 
2 2 2 1 1 1 1 1 1 
1 1 1 1 2 2 2 2 2 
2 0 0 0 0 0 0 0 0 
0 0 0 0 0 0 0 0 0 
0 0 0 0 0 0 0 0 0 
0 0 1 1 1 1 1 1 1 
1 1 2 2 2 2 1 1 1 
1 2 1 1 1 2 2 2 2 
1 1 1 1 2 2 2 2 2 
1 1 1 1 1 1 2 2 2 
2 2 1 1 1 1 2 2 2 
2 2 2 2 1 1 1 1 1 
1 1 1 1 1 1 2 2 2 
2 0 0 0 0 0 0 0 0 
0 0 0 0 0 0 0 0 0 
0 0 0 0 0 0 0 0 0 
0 0 0 0 1 1 1 1 1 
1 1 1 2 2 2 2 1 1 
1 1 2 1 1 1 2 2 2 
2 1 1 1 1 2 2 2 2 
2 1 2 2 2 1 1 2 2 
2 2 2 1 1 1 1 2 2 
2 2 2 2 2 2 2 2 2 
2 2 2 2 2 2 2 2 2 
2 0 0 0 0 0 0 0 0 
0 0 0 0 0 0 0 0 0 
0 0 0 0 0 0 0 0 0 
0 0 0 0 0 0 2 2 2 
2 2 2 2 2 2 2 2 1 
1 1 1 2 2 1 1 2 2 
2 2 1 1 1 1 2 2 2 
2 2 2 2 2 2 2 2 2 
2 2 2 1 1 1 1 1 2 
1 1 1 1 1 1 2 2 2 
2 1 1 2 2 2 2 2 2 
2 0 0 0 0 0 0 0 0 
0 0 0 0 0 0 0 0 0 
0 0 0 0 0 0 0 0 0 
0 0 0 0 0 0 0 0 2 
2 2 2 2 1 1 1 2 2 
1 1 1 1 2 2 2 2 2 
2 2 2 1 1 1 1 2 1 
1 1 1 2 2 2 2 2 2 
1 2 1 1 1 1 1 1 1 
2 2 2 1 1 1 1 2 2 
2 2 1 1 2 2 2 2 2 
2 0 0 0 0 0 0 0 0 
0 0 0 0 0 0 0 0 0 
0 0 0 0 0 0 0 0 0 
0 0 0 0 0 0 0 0 0 
0 2 2 2 2 1 1 1 2 
2 1 1 1 2 2 2 2 1 
1 1 1 1 2 2 2 2 2 
1 1 1 1 2 2 2 2 2 
2 1 2 2 2 2 1 1 2 
2 2 2 2 1 1 1 1 2 
2 2 2 1 1 1 1 1 2 
2 0 0 0 0 0 0 0 0 
0 0 0 0 0 0 0 0 0 
0 0 0 0 0 0 0 0 0 
0 0 0 0 0 0 0 0 0 
0 0 0 2 2 2 1 1 1 
2 2 1 1 1 2 2 2 2 
1 1 1 1 1 2 2 2 2 
2 1 1 1 1 1 1 1 1 
1 1 1 2 2 2 2 2 1 
2 2 2 2 2 1 1 1 1 
2 2 2 2 1 1 1 1 1 
1 0 0 0 0 0 0 0 0 
0 0 0 0 0 0 0 0 0 
0 0 0 0 0 0 0 0 0 
0 0 0 0 0 0 0 0 0 
0 0 0 0 0 2 1 1 1 
1 2 2 1 1 1 2 2 2 
2 1 1 1 1 1 2 2 2 
2 2 2 2 2 2 2 2 1 
1 1 1 1 2 2 2 2 2 
1 2 2 2 2 2 1 1 1 
1 2 2 2 2 1 1 1 1 
1 0 0 0 0 0 0 0 0 
0 0 0 0 0 0 0 0 0 
0 0 0 0 0 0 0 0 0 
0 0 0 0 0 0 0 0 0 
0 0 0 0 0 0 0 1 1 
1 1 2 2 1 1 1 2 2 
2 2 1 1 1 1 1 2 2 
2 2 2 2 2 2 2 2 2 
1 1 1 1 1 2 2 2 2 
2 2 2 2 2 2 2 1 1 
1 1 2 2 2 2 2 1 1 
1 0 0 0 0 0 0 0 0 
0 0 0 0 0 0 0 0 0 
0 0 0 0 0 0 0 0 0 
0 0 0 0 0 0 0 0 0 
0 0 0 0 0 0 0 0 0 
1 1 1 2 2 2 2 2 2 
2 2 2 1 1 1 1 1 2 
2 2 2 1 2 2 2 2 2 
2 2 2 2 2 2 2 2 2 
2 2 1 1 1 2 2 2 1 
1 2 2 1 1 1 1 1 1 
1 0 0 0 0 0 0 0 0 
0 0 0 0 0 0 0 0 0 
0 0 0 0 0 0 0 0 0 
0 0 0 0 0 0 0 0 0 
0 0 0 0 0 0 0 0 0 
0 0 1 1 2 2 1 1 1 
1 1 1 1 1 1 1 1 1 
1 2 1 1 1 2 2 2 2 
2 1 2 2 2 2 2 1 1 
1 1 1 1 1 1 1 1 1 
2 2 2 2 1 1 1 1 1 
1 0 0 0 0 0 0 0 0 
0 0 0 0 0 0 0 0 0 
0 0 0 0 0 0 0 0 0 
0 0 0 0 0 0 0 0 0 
0 0 0 0 0 0 0 0 0 
0 0 0 0 1 1 1 1 1 
1 1 1 2 2 2 2 2 2 
2 2 2 1 1 1 1 1 1 
1 1 1 2 2 2 2 2 1 
1 1 1 1 1 1 1 1 1 
1 2 2 2 2 1 1 1 1 
1 0 0 0 0 0 0 0 0 
0 0 0 0 0 0 0 0 0 
0 0 0 0 0 0 0 0 0 
0 0 0 0 0 0 0 0 0 
0 0 0 0 0 0 0 0 0 
0 0 0 0 0 0 1 1 1 
1 1 1 2 2 2 2 2 2 
2 2 2 2 1 1 1 1 1 
1 1 1 1 2 2 2 2 2 
2 2 2 1 1 1 2 2 2 
2 1 2 2 2 2 1 1 1 
1 0 0 0 0 0 0 0 0 
0 0 0 0 0 0 0 0 0 
0 0 0 0 0 0 0 0 0 
0 0 0 0 0 0 0 0 0 
0 0 0 0 0 0 0 0 0 
0 0 0 0 0 0 0 0 1 
1 1 1 1 1 1 1 1 1 
1 1 2 2 2 1 1 1 2 
2 2 2 2 2 2 2 2 2 
2 2 2 2 2 2 2 2 2 
2 2 2 2 2 2 2 1 1 
1 0 0 0 0 0 0 0 0 
0 0 0 0 0 0 0 0 0 
0 0 0 0 0 0 0 0 0 
0 0 0 0 0 0 0 0 0 
0 0 0 0 0 0 0 0 0 
0 0 0 0 0 0 0 0 0 
0 1 1 1 1 1 1 1 1 
1 1 1 2 2 2 1 1 1 
2 2 2 2 2 2 2 2 2 
2 2 2 2 2 2 2 2 2 
2 2 2 2 2 2 2 2 2 
1 0 0 0 0 0 0 0 0 
0 0 0 0 0 0 0 0 0 
0 0 0 0 0 0 0 0 0 
0 0 0 0 0 0 0 0 0 
0 0 0 0 0 0 0 0 0 
0 0 0 0 0 0 0 0 0 
0 0 0 0 1 1 1 1 1 
1 1 1 1 2 2 2 1 1 
1 2 2 2 2 2 2 2 2 
2 2 2 2 2 2 2 2 2 
2 2 2 2 2 2 2 2 2 
2 0 0 0 0 0 0 0 0 
0 0 0 0 0 0 0 0 0 
0 0 0 0 0 0 0 0 0 
0 0 0 0 0 0 0 0 0 
0 0 0 0 0 0 0 0 0 
0 0 0 0 0 0 0 0 0 
0 0 0 0 0 0 0 0 0 
0 0 0 0 0 0 0 0 0 
0 0 0 0 0 0 0 0 0 
0 0 0 0 0 0 0 0 0 
0 0 0 0 0 0 0 0 0 
0 0 0 0 0 0 0 0 0 
0 0 0 0 0 0 0 0 0 
0 0 0 0 0 0 0 0 0 
0 0 0 0 0 0 0 0 0 
0 0 0 0 0 0 0 0 0 
0 0 0 0 0 0 0 0 0 
0 0 0 0 0 0 0 0 0 
0 0 0 0 0 0 0 0 0 
0 0 0 0 0 0 0 0 0 
0 0 0 0 0 0 0 0 0 
0 0 0 0 0 0 0 0 0 
0 0 0 0 0 0 0 0 0 
0 0 0 0 0 0 0 0 0 
0 0 0 0 0 0 0 0 0 
0 0 0 0 0 0 0 0 0 
0 0 0 0 0 0 0 0 0 
0 0 0 0 0 0 0 0 0 
0 0 0 0 0 0 0 0 0 
0 0 0 0 0 0 0 0 0 
0 0 0 0 0 0 0 0 0 
0 0 0 0 0 0 0 0 0 
0 0 0 0 0 0 0 0 0 
0 0 0 0 0 0 0 0 0 
0 0 0 0 0 0 0 0 0 
0 0 0 0 0 0 0 0 0 
0 0 0 0 0 0 0 0 0 
0 0 0 0 0 0 0 0 0 
0 0 0 0 0 0 0 0 0 
0 0 0 0 0 0 0 0 0 
0 0 0 0 0 0 0 0 0 
0 0 0 0 0 0 0 0 0 
0 0 0 0 0 0 0 0 0 
0 0 0 0 0 0 0 0 0 
0 0 0 0 0 0 0 0 0 
0 0 0 0 0 0 0 0 0 
0 0 0 0 0 0 0 0 0 
0 0 0 0 0 0 0 0 0 
0 0 0 0 0 0 0 0 0 
0 0 0 0 0 0 0 0 0 
0 0 0 0 0 0 0 0 0 
0 0 0 0 0 0 0 0 0 
0 0 0 0 0 0 0 0 0 
0 0 0 0 0 0 0 0 0 
0 0 0 0 0 0 0 0 0 
0 0 0 0 0 0 0 0 0 
0 0 0 0 0 0 0 0 0 
0 0 0 0 0 0 0 0 0 
0 0 0 0 0 0 0 0 0 
0 0 0 0 0 0 0 0 0 
0 0 0 0 0 0 0 0 0 
0 0 0 0 0 0 0 0 0 
0 0 0 0 0 0 0 0 0 
0 0 0 0 0 0 0 0 0 
0 0 0 0 0 0 0 0 0 
0 0 0 0 0 0 0 0 0 
0 0 0 0 0 0 0 0 0 
0 0 0 0 0 0 0 0 0 
0 0 0 0 0 0 0 0 0 
0 0 0 0 0 0 0 0 0 
0 0 0 0 0 0 0 0 0 
0 0 0 0 0 0 0 0 0 
0 0 0 0 0 0 0 0 0 
0 0 0 0 0 0 0 0 0 
0 0 0 0 0 0 0 0 0 
0 0 0 0 0 0 0 0 0 
0 0 0 0 0 0 0 0 0 
0 0 0 0 0 0 0 0 0 
0 0 0 0 0 0 0 0 0 
0 0 0 0 0 0 0 0 0 
0 0 0 0 0 0 0 0 0 
0 0 0 0 0 0 0 0 0 
0 0 0 0 0 0 0 0 0 
0 0 0 0 0 0 0 0 0 
0 0 0 0 0 0 0 0 0 
0 0 0 0 0 0 0 0 0 
0 0 0 0 0 0 0 0 0 
0 0 0 0 0 0 0 0 0 
0 0 0 0 0 0 0 0 0 
0 0 0 0 0 0 0 0 0 
0 0 0 0 0 0 0 0 0 
0 0 0 0 0 0 0 0 0 
0 0 0 0 0 0 0 0 0 
0 0 0 0 0 0 0 0 0 
0 0 0 0 0 0 0 0 0 
0 0 0 0 0 0 0 0 0 
0 0 0 0 0 0 0 0 0 
0 0 0 0 0 0 0 0 0 
0 0 0 0 0 0 0 0 0 
0 0 0 0 0 0 0 0 0 
0 0 0 0 0 0 0 0 0 
0 0 0 0 0 0 0 0 0 
0 0 0 0 0 0 0 0 0 
0 0 0 0 0 0 0 0 0 
0 0 0 0 0 0 0 0 0 
0 0 0 0 0 0 0 0 0 
0 0 0 0 0 0 0 0 0 
0 0 0 0 0 0 0 0 0 
0 0 0 0 0 0 0 0 0 
0 0 0 0 0 0 0 0 0 
0 0 0 0 0 0 0 0 0 
0 0 0 0 0 0 0 0 0 
0 0 0 0 0 0 0 0 0 
0 0 0 0 0 0 0 0 0 
0 
CellId 1 10000 long
0 0 0 0 0 0 0 0 0 
0 0 0 0 0 0 0 0 0 
0 0 0 0 0 0 0 0 0 
0 0 0 0 0 0 0 0 0 
0 0 0 0 0 0 0 0 0 
0 0 0 0 0 0 0 0 0 
0 0 0 0 0 0 0 0 0 
0 0 0 0 0 0 0 0 0 
0 0 0 0 0 0 0 0 0 
0 0 0 0 0 0 0 0 0 
0 0 0 0 0 0 0 0 0 
0 0 0 0 0 0 0 0 0 
0 0 0 0 0 0 0 0 0 
0 0 0 0 0 0 0 0 0 
0 0 0 0 0 0 0 0 0 
0 0 0 0 0 0 0 0 0 
0 0 0 0 0 0 0 0 0 
0 0 0 0 0 0 0 0 0 
0 0 0 0 0 0 0 0 0 
0 0 0 0 0 0 0 0 0 
0 0 0 0 0 0 0 0 0 
0 0 0 0 0 0 0 0 0 
0 0 0 0 0 0 0 0 0 
0 0 0 0 0 0 0 0 0 
0 0 0 0 0 0 0 0 0 
0 0 0 0 0 0 0 0 0 
0 0 0 0 0 0 0 0 0 
0 0 0 0 0 0 0 0 0 
0 0 0 0 0 0 0 0 0 
0 0 0 0 0 0 0 0 0 
0 0 0 0 0 0 0 0 0 
0 0 0 0 0 0 0 0 0 
0 0 0 0 0 0 0 0 0 
0 0 0 0 0 0 0 0 0 
0 0 0 0 0 0 0 0 0 
0 0 0 0 0 0 0 0 0 
0 0 0 0 0 0 0 0 0 
0 0 0 0 0 0 0 0 0 
0 0 0 0 0 0 0 0 0 
0 0 0 0 0 0 0 0 0 
0 0 0 0 0 0 0 0 0 
0 0 0 0 0 0 0 0 0 
0 0 0 0 0 0 0 0 0 
0 0 0 0 0 0 0 0 0 
0 0 0 0 0 0 0 0 0 
0 0 0 0 0 0 0 0 0 
0 0 0 0 0 0 0 0 0 
0 0 0 0 0 0 0 0 0 
0 0 0 0 0 0 0 0 0 
0 0 0 0 0 0 0 0 0 
0 0 0 0 0 0 0 0 0 
0 0 0 0 0 0 0 0 0 
0 0 0 0 0 0 0 0 0 
0 0 0 0 0 0 0 0 0 
0 0 0 0 0 0 0 0 0 
0 0 0 0 0 0 0 0 0 
0 0 0 0 0 0 0 0 0 
0 0 0 0 0 0 0 0 0 
0 0 0 0 0 0 0 0 0 
0 0 0 0 0 0 0 0 0 
0 0 0 0 0 0 0 0 0 
0 0 0 0 0 0 0 0 0 
0 0 0 0 0 0 0 0 0 
0 0 0 0 0 0 0 0 0 
0 0 0 0 0 0 0 0 0 
0 0 0 0 0 0 0 0 0 
0 0 0 0 0 0 0 0 0 
0 0 0 0 0 0 0 0 0 
0 0 0 0 0 0 0 0 0 
0 0 0 0 0 0 0 0 0 
0 0 0 0 0 0 0 0 0 
0 0 0 0 0 0 0 0 0 
0 0 0 0 0 0 0 0 0 
0 0 0 0 0 0 0 0 0 
0 0 0 0 0 0 0 0 0 
0 0 0 0 0 0 0 0 0 
0 0 0 0 0 0 0 0 0 
0 0 0 0 0 0 0 0 0 
0 0 0 0 0 0 0 0 0 
0 0 0 0 0 0 0 0 0 
0 0 0 0 0 0 0 0 0 
0 0 0 0 0 0 0 0 0 
0 0 0 0 0 0 0 0 0 
0 0 0 0 0 0 0 0 0 
0 0 0 0 0 0 0 0 0 
0 0 0 0 0 0 0 0 0 
0 0 0 0 0 0 0 0 0 
0 0 0 0 0 0 0 0 0 
0 0 0 0 0 0 0 0 0 
0 0 0 0 0 0 0 0 0 
0 0 0 0 0 0 0 0 0 
0 0 0 0 0 0 0 0 0 
0 0 0 0 0 0 0 0 0 
0 0 0 0 0 0 0 0 0 
0 0 0 0 0 0 0 0 0 
0 0 0 0 0 0 0 0 0 
0 0 0 0 0 0 0 0 0 
0 0 0 0 0 0 0 0 0 
0 0 0 0 0 0 0 0 0 
0 0 0 0 0 0 0 0 0 
0 0 0 0 0 0 0 0 0 
0 0 0 0 0 0 0 0 0 
0 0 0 0 0 0 0 0 0 
0 0 0 0 0 0 0 0 0 
0 0 0 0 0 0 0 0 0 
0 0 0 0 0 0 0 0 0 
0 0 0 0 0 0 0 0 0 
0 0 0 0 0 0 0 0 0 
0 0 0 0 0 0 0 0 0 
0 0 0 0 0 0 0 0 0 
0 0 0 0 0 0 0 0 0 
0 0 0 0 0 0 0 0 0 
0 0 0 0 0 0 0 0 0 
0 0 0 0 0 0 0 0 0 
0 0 0 0 0 0 0 0 0 
0 0 0 0 0 0 0 0 0 
0 0 0 0 0 0 0 0 0 
0 0 0 0 0 0 0 0 0 
0 0 0 0 0 0 0 0 0 
0 0 0 0 0 0 0 0 0 
0 0 0 0 0 0 0 0 0 
0 0 0 0 0 0 0 0 0 
0 0 0 0 0 0 0 0 0 
0 0 0 0 0 0 0 0 0 
0 0 0 0 0 0 0 0 0 
0 0 0 0 0 0 0 0 0 
0 0 0 0 0 0 0 0 0 
0 0 0 0 0 0 0 0 0 
0 0 0 0 0 0 0 0 0 
0 0 0 0 0 0 0 0 0 
0 0 0 0 0 0 0 0 0 
0 0 0 0 0 0 0 0 0 
0 0 0 0 0 0 0 0 0 
0 0 0 0 0 0 0 0 0 
0 0 0 0 0 0 0 0 0 
0 0 0 0 0 0 0 0 0 
0 0 0 0 0 0 0 0 0 
0 0 0 0 0 0 0 0 0 
0 0 0 0 0 0 0 0 0 
0 0 0 0 0 0 0 0 0 
0 0 0 0 0 0 0 0 0 
0 0 0 0 0 0 0 0 0 
0 0 0 0 0 0 0 0 0 
0 0 0 0 0 0 0 0 0 
0 0 0 0 0 0 0 0 0 
0 0 0 0 0 0 0 0 0 
0 0 0 0 0 0 0 0 0 
0 0 0 0 0 0 0 0 0 
0 0 0 0 0 0 0 0 0 
0 0 0 0 0 0 0 0 0 
0 0 0 0 0 0 0 0 0 
0 0 0 0 0 0 0 0 0 
0 0 0 0 0 0 0 0 0 
0 0 0 0 0 0 0 0 0 
0 0 0 0 0 0 0 0 0 
0 0 0 0 0 0 0 0 0 
0 0 0 0 0 0 0 0 0 
0 0 0 0 0 0 0 0 0 
0 0 0 0 0 0 0 0 0 
0 0 0 0 0 0 0 0 0 
0 0 0 0 0 0 0 0 0 
0 0 0 0 0 0 0 0 0 
0 0 0 0 0 0 0 0 0 
0 0 0 0 0 0 0 0 0 
0 0 0 0 0 0 0 0 0 
0 0 0 0 0 0 0 0 0 
0 0 0 0 0 0 0 0 0 
0 0 0 0 0 0 0 0 0 
0 0 0 0 0 0 0 0 0 
0 0 0 0 0 0 0 0 0 
0 8 8 1 1 1 2 2 2 
2 2 2 12 12 3 3 3 13 
13 4 4 4 4 4 5 5 5 
15 6 6 6 6 6 6 16 16 
16 16 7 7 7 7 17 17 0 
0 0 0 0 0 0 0 0 0 
0 0 0 0 0 0 0 0 0 
0 0 0 0 0 0 0 0 0 
0 0 0 0 0 0 0 0 0 
0 0 0 0 0 0 0 0 0 
0 0 0 0 0 0 0 0 0 
0 8 8 8 1 1 1 2 2 
2 2 2 12 12 12 3 3 3 
13 13 4 4 4 4 4 5 5 
5 15 6 6 6 6 6 6 16 
16 16 16 7 7 7 7 17 17 
17 0 0 0 0 0 0 0 0 
0 0 0 0 0 0 0 0 0 
0 0 0 0 0 0 0 0 0 
0 0 0 0 0 0 0 0 0 
0 0 0 0 0 0 0 0 0 
0 0 0 0 0 0 0 0 0 
0 8 8 8 8 1 1 1 2 
2 2 2 2 12 12 12 3 3 
3 13 13 4 4 4 4 4 5 
5 5 15 6 6 6 6 6 6 
16 16 16 16 7 7 7 7 17 
17 17 17 0 0 0 0 0 0 
0 0 0 0 0 0 0 0 0 
0 0 0 0 0 0 0 0 0 
0 0 0 0 0 0 0 0 0 
0 0 0 0 0 0 0 0 0 
0 0 0 0 0 0 0 0 0 
0 9 8 8 8 8 1 1 1 
2 2 2 2 2 12 12 12 3 
3 3 13 13 4 4 4 4 5 
5 5 5 15 15 6 6 6 6 
6 16 16 16 16 7 7 7 7 
17 17 17 17 17 0 0 0 0 
0 0 0 0 0 0 0 0 0 
0 0 0 0 0 0 0 0 0 
0 0 0 0 0 0 0 0 0 
0 0 0 0 0 0 0 0 0 
0 0 0 0 0 0 0 0 0 
0 9 9 9 8 8 8 1 1 
1 1 2 2 2 12 12 12 12 
3 3 3 13 13 4 4 4 5 
5 5 5 5 15 15 15 6 6 
6 6 16 16 16 16 7 7 7 
7 17 17 17 17 17 29 0 0 
0 0 0 0 0 0 0 0 0 
0 0 0 0 0 0 0 0 0 
0 0 0 0 0 0 0 0 0 
0 0 0 0 0 0 0 0 0 
0 0 0 0 0 0 0 0 0 
0 19 9 9 9 8 8 8 1 
1 1 1 1 2 2 12 12 12 
12 3 3 3 13 13 13 4 4 
5 5 5 5 5 15 15 15 15 
15 16 16 16 16 16 16 7 7 
7 7 17 17 17 17 29 29 18 
0 0 0 0 0 0 0 0 0 
0 0 0 0 0 0 0 0 0 
0 0 0 0 0 0 0 0 0 
0 0 0 0 0 0 0 0 0 
0 0 0 0 0 0 0 0 0 
0 19 19 9 9 9 8 8 8 
8 1 1 1 1 1 12 12 12 
12 12 3 3 3 13 13 13 13 
4 5 5 5 5 5 15 15 15 
15 15 27 27 27 27 27 27 7 
7 7 7 17 17 29 29 29 18 
18 18 0 0 0 0 0 0 0 
0 0 0 0 0 0 0 0 0 
0 0 0 0 0 0 0 0 0 
0 0 0 0 0 0 0 0 0 
0 0 0 0 0 0 0 0 0 
0 19 19 19 9 9 9 9 8 
8 8 8 11 11 11 11 11 11 
11 11 12 3 3 3 13 13 13 
13 14 14 14 14 14 14 15 15 
15 15 15 27 27 27 27 27 28 
28 28 28 28 29 29 29 29 29 
18 18 18 18 0 0 0 0 0 
0 0 0 0 0 0 0 0 0 
0 0 0 0 0 0 0 0 0 
0 0 0 0 0 0 0 0 0 
0 0 0 0 0 0 0 0 0 
0 19 19 19 19 9 9 9 9 
9 10 10 10 10 11 11 11 11 
11 11 11 23 3 3 3 13 13 
13 13 14 14 14 14 14 26 26 
26 26 15 15 27 27 27 27 27 
28 28 28 28 28 29 29 29 29 
29 18 18 18 18 18 0 0 0 
0 0 0 0 0 0 0 0 0 
0 0 0 0 0 0 0 0 0 
0 0 0 0 0 0 0 0 0 
0 0 0 0 0 0 0 0 0 
0 19 19 19 19 19 9 9 9 
20 20 20 10 10 10 10 11 11 
11 11 11 23 23 23 23 3 13 
13 13 13 14 14 14 14 14 26 
26 26 26 26 15 27 27 27 27 
27 28 28 28 28 28 29 29 29 
29 29 18 18 18 18 18 18 0 
0 0 0 0 0 0 0 0 0 
0 0 0 0 0 0 0 0 0 
0 0 0 0 0 0 0 0 0 
0 0 0 0 0 0 0 0 0 
0 19 19 19 19 19 19 9 20 
20 20 20 20 10 10 10 10 11 
11 11 11 11 23 23 23 23 37 
37 37 37 37 24 14 14 14 14 
26 26 26 26 26 26 27 27 27 
27 28 28 28 28 28 28 29 29 
29 29 29 18 18 18 18 18 31 
31 0 0 0 0 0 0 0 0 
0 0 0 0 0 0 0 0 0 
0 0 0 0 0 0 0 0 0 
0 0 0 0 0 0 0 0 0 
0 34 34 19 19 19 19 19 34 
20 20 20 20 20 10 10 10 10 
10 10 11 23 23 23 23 23 23 
37 37 37 37 37 24 24 14 14 
14 26 26 26 26 26 25 25 25 
25 28 28 28 28 28 28 28 30 
30 30 30 30 31 31 31 31 31 
31 44 44 0 0 0 0 0 0 
0 0 0 0 0 0 0 0 0 
0 0 0 0 0 0 0 0 0 
0 0 0 0 0 0 0 0 0 
0 34 34 34 34 34 34 34 34 
34 20 20 20 20 20 10 10 10 
10 10 10 22 23 23 23 23 23 
23 37 37 37 37 37 24 24 24 
14 14 26 26 26 26 25 25 25 
25 40 40 40 40 40 40 40 40 
30 30 30 30 30 30 31 31 31 
31 31 44 44 44 0 0 0 0 
0 0 0 0 0 0 0 0 0 
0 0 0 0 0 0 0 0 0 
0 0 0 0 0 0 0 0 0 
0 32 32 34 34 34 34 34 34 
34 34 20 20 20 20 20 20 22 
22 22 22 22 22 22 23 23 23 
23 23 37 37 37 37 37 24 24 
24 24 24 24 25 25 25 25 25 
25 25 40 40 40 40 40 40 40 
40 30 30 30 30 30 30 31 31 
31 31 31 44 44 44 44 0 0 
0 0 0 0 0 0 0 0 0 
0 0 0 0 0 0 0 0 0 
0 0 0 0 0 0 0 0 0 
0 32 32 32 32 34 34 34 34 
34 34 34 20 21 21 21 21 21 
21 22 22 22 22 22 22 23 23 
23 23 23 37 37 37 37 24 24 
24 24 24 24 24 25 25 25 25 
25 25 25 40 40 40 40 40 40 
40 40 30 30 30 30 30 30 31 
31 31 31 44 44 44 44 44 44 
0 0 0 0 0 0 0 0 0 
0 0 0 0 0 0 0 0 0 
0 0 0 0 0 0 0 0 0 
0 32 32 32 32 32 47 33 33 
33 33 33 33 33 21 21 21 21 
21 21 22 22 22 22 22 22 36 
36 36 36 36 37 37 37 37 24 
24 24 24 24 24 24 25 25 25 
25 25 25 25 40 40 40 40 40 
40 40 40 30 30 30 30 30 30 
31 31 31 31 44 44 44 44 44 
44 44 0 0 0 0 0 0 0 
0 0 0 0 0 0 0 0 0 
0 0 0 0 0 0 0 0 0 
0 32 32 32 32 32 47 47 47 
47 33 33 33 33 33 33 21 21 
21 21 21 22 22 22 22 22 35 
36 36 36 36 36 51 51 51 38 
38 38 38 38 38 38 38 39 39 
39 39 39 39 39 41 41 41 41 
41 41 41 41 42 42 42 42 42 
42 43 43 43 43 43 58 58 58 
58 58 58 58 0 0 0 0 0 
0 0 0 0 0 0 0 0 0 
0 0 0 0 0 0 0 0 0 
0 0 32 32 32 32 32 47 47 
47 47 47 33 33 33 33 33 21 
21 21 21 21 22 22 35 35 35 
35 35 36 36 36 36 51 51 51 
38 38 38 38 38 38 38 38 39 
39 39 39 39 39 39 41 41 41 
41 41 41 41 41 42 42 42 42 
42 42 43 43 43 43 43 58 58 
58 58 58 58 58 0 0 0 0 
0 0 0 0 0 0 0 0 0 
0 0 0 0 0 0 0 0 0 
0 0 0 32 32 32 32 32 47 
47 47 47 47 33 33 33 33 33 
33 21 21 21 21 21 35 35 35 
35 35 35 36 36 36 36 51 51 
51 38 38 38 38 38 38 38 38 
39 39 39 39 39 39 39 41 41 
41 41 41 41 41 41 42 42 42 
42 42 42 43 43 43 43 43 43 
58 58 58 58 58 58 0 0 0 
0 0 0 0 0 0 0 0 0 
0 0 0 0 0 0 0 0 0 
0 0 0 0 32 32 32 32 32 
47 47 47 47 47 33 33 48 48 
48 48 48 49 49 49 49 49 35 
35 35 35 35 36 36 36 36 51 
51 51 38 38 53 53 53 53 53 
53 39 39 39 39 39 39 39 41 
41 55 55 55 55 55 41 42 42 
42 42 42 42 43 43 43 43 43 
43 58 58 58 58 58 58 0 0 
0 0 0 0 0 0 0 0 0 
0 0 0 0 0 0 0 0 0 
0 0 0 0 0 45 45 45 45 
45 47 47 47 47 47 48 48 48 
48 48 48 48 49 49 49 49 49 
35 35 35 35 35 36 36 36 51 
51 51 51 38 53 53 53 53 53 
53 53 54 54 54 54 54 54 54 
55 55 55 55 55 55 55 56 42 
42 42 42 42 42 43 43 43 57 
57 57 59 59 59 59 59 59 0 
0 0 0 0 0 0 0 0 0 
0 0 0 0 0 0 0 0 0 