# vtk DataFile Version 5.1
vtk output
ASCII
DATASET STRUCTURED_POINTS
DIMENSIONS 100 100 1
SPACING 1 1 1
ORIGIN 0 0 0
POINT_DATA 10000
FIELD FieldData 3
CellType 1 10000 char
0 0 0 0 0 0 0 0 0 
0 0 0 0 0 0 0 0 0 
0 0 0 0 0 0 0 0 0 
0 0 0 0 0 0 0 0 0 
0 0 0 0 0 0 0 0 0 
0 0 0 0 0 0 0 0 0 
0 0 0 0 0 0 0 0 0 
0 0 0 0 0 0 0 0 0 
0 0 0 0 0 0 0 0 0 
0 0 0 0 0 0 0 0 0 
0 0 0 0 0 0 0 0 0 
0 0 0 0 0 0 0 0 0 
0 0 0 0 0 0 0 0 0 
0 0 0 0 0 0 0 0 0 
0 0 0 0 0 0 0 0 0 
0 0 0 0 0 0 0 0 0 
0 0 0 0 0 0 0 0 0 
0 0 0 0 0 0 0 0 0 
0 0 0 0 0 0 0 0 0 
0 0 0 0 0 0 0 0 0 
0 0 0 0 0 0 0 0 0 
0 0 0 0 0 0 0 0 0 
0 0 0 0 0 0 0 0 0 
0 0 0 0 0 0 0 0 0 
0 0 0 0 0 0 0 0 0 
0 0 0 0 0 0 0 0 0 
0 0 0 0 0 0 0 0 0 
0 0 0 0 0 0 0 0 0 
0 0 0 0 0 0 0 0 0 
0 0 0 0 0 0 0 0 0 
0 0 0 0 0 0 0 0 0 
0 0 0 0 0 0 0 0 0 
0 0 0 0 0 0 0 0 0 
0 0 0 0 0 0 0 0 0 
0 0 0 0 0 0 0 0 0 
0 0 0 0 0 0 0 0 0 
0 0 0 0 0 0 0 0 0 
0 0 0 0 0 0 0 0 0 
0 0 0 0 0 0 0 0 0 
0 0 0 0 0 0 0 0 0 
0 0 0 0 0 0 0 0 0 
0 0 0 0 0 0 0 0 0 
0 0 0 0 0 0 0 0 0 
0 0 0 0 0 0 0 0 0 
0 0 0 0 0 0 0 0 0 
0 0 0 0 0 0 0 0 0 
0 0 0 0 0 0 0 0 0 
0 0 0 0 0 0 0 0 0 
0 0 0 0 0 0 0 0 0 
0 0 0 0 0 0 0 0 0 
0 0 0 0 0 0 0 0 0 
0 0 0 0 0 0 0 0 0 
0 0 0 0 0 0 0 0 0 
0 0 0 0 0 0 0 0 0 
0 0 0 0 0 0 0 0 0 
0 0 0 0 0 0 0 0 0 
0 0 0 0 0 0 0 0 0 
0 0 0 0 0 0 0 0 0 
0 0 0 0 0 0 0 0 0 
0 0 0 0 0 0 0 0 0 
0 0 0 0 0 0 0 0 0 
0 0 0 0 0 0 0 0 0 
0 0 0 0 0 0 0 0 0 
0 0 0 0 0 0 0 0 0 
0 0 0 0 0 0 0 0 0 
0 0 0 0 0 0 0 0 0 
0 0 0 0 0 0 0 0 0 
0 0 0 0 0 0 0 0 0 
0 0 0 0 0 0 0 0 0 
0 0 0 0 0 0 0 0 0 
0 0 0 0 0 0 0 0 0 
0 0 0 0 0 0 0 0 0 
0 0 0 0 0 0 0 0 0 
0 0 0 0 0 0 0 0 0 
0 0 0 0 0 0 0 0 0 
0 0 0 0 0 0 0 0 0 
0 0 0 0 0 0 0 0 0 
0 0 0 0 0 0 0 0 0 
0 0 0 0 0 0 0 0 0 
0 0 0 0 0 0 0 0 0 
0 0 0 0 0 0 0 0 0 
0 0 0 0 0 0 0 0 0 
0 0 0 0 0 0 0 0 0 
0 0 0 0 0 0 0 0 0 
0 0 0 0 0 0 0 0 0 
0 0 0 0 0 0 0 0 0 
0 0 0 0 0 0 0 0 0 
0 0 0 0 0 0 0 0 0 
0 0 0 0 0 0 0 0 0 
0 0 0 0 0 0 0 0 0 
0 0 0 0 0 0 0 0 0 
0 0 0 0 0 0 0 0 0 
0 0 0 0 0 0 0 0 0 
0 0 0 0 0 0 0 0 0 
0 0 0 0 0 0 0 0 0 
0 0 0 0 0 0 0 0 0 
0 0 0 0 0 0 0 0 0 
0 0 0 0 0 0 0 0 0 
0 0 0 0 0 0 0 0 0 
0 0 0 0 0 0 0 0 0 
0 0 0 0 0 0 0 0 0 
0 0 0 0 0 0 0 0 0 
0 0 0 0 0 0 0 0 0 
0 0 0 0 0 0 0 0 0 
0 0 0 0 0 0 0 0 0 
0 0 0 0 0 0 0 0 0 
0 0 0 0 0 0 0 0 0 
0 0 0 0 0 0 0 0 0 
0 0 0 0 0 0 0 0 0 
0 0 0 0 0 0 0 0 0 
0 0 0 0 0 0 0 0 0 
0 0 0 0 0 0 0 0 0 
0 0 0 0 0 0 0 0 0 
0 0 0 0 0 0 0 0 0 
0 0 0 0 0 0 0 0 0 
0 0 0 0 0 0 0 0 0 
0 0 0 0 0 0 0 0 0 
0 0 0 0 0 0 0 0 0 
0 0 0 0 0 0 0 0 0 
0 0 0 0 0 0 0 0 0 
0 0 0 0 0 0 0 0 0 
0 0 0 0 0 0 0 0 0 
0 0 0 0 0 0 0 0 0 
0 0 0 0 0 0 0 0 0 
0 0 0 0 0 0 0 0 0 
0 0 0 0 0 0 0 0 0 
0 0 0 0 0 0 0 0 0 
0 0 0 0 0 0 0 0 0 
0 0 0 0 0 0 0 0 0 
0 0 0 0 0 0 0 0 0 
0 0 0 0 0 0 0 0 0 
0 0 0 0 0 0 0 0 0 
0 0 0 0 0 0 0 0 0 
0 0 0 0 0 0 0 0 0 
0 0 0 0 0 0 0 0 0 
0 0 0 0 0 0 0 0 0 
0 0 0 0 0 0 0 0 0 
0 0 0 0 0 0 0 0 0 
0 0 0 0 0 0 0 0 0 
0 0 0 0 0 0 0 0 0 
0 0 0 0 0 0 0 0 0 
0 0 0 0 0 0 0 0 0 
0 0 0 0 0 0 0 0 0 
0 0 0 0 0 0 0 0 0 
0 0 0 0 0 0 0 0 0 
0 0 0 0 0 0 0 0 0 
0 0 0 0 0 0 0 0 0 
0 0 0 0 0 0 0 0 0 
0 0 0 0 0 0 0 0 0 
0 0 0 0 0 0 0 0 0 
0 0 0 0 0 0 0 0 0 
0 0 0 0 0 0 0 0 0 
0 0 0 0 0 0 0 0 0 
0 0 0 0 0 0 0 0 0 
0 0 0 0 0 0 0 0 0 
0 0 0 0 0 0 0 0 0 
0 0 0 0 0 0 0 0 0 
0 0 0 0 0 0 0 0 0 
0 0 0 0 0 0 0 0 0 
0 0 0 0 0 0 0 0 0 
0 0 0 0 0 0 0 0 0 
0 0 0 0 0 0 0 0 0 
0 0 0 0 0 0 0 0 0 
0 0 0 0 0 0 0 0 0 
0 0 0 0 0 0 0 0 0 
0 0 0 0 0 0 0 0 0 
0 0 0 0 0 0 0 0 0 
0 0 0 0 0 0 0 0 0 
0 0 0 0 0 0 0 0 0 
0 0 0 0 0 0 0 0 0 
0 1 1 1 1 2 2 2 2 
2 2 2 2 1 1 1 1 1 
1 1 1 1 2 2 2 2 2 
2 2 2 2 1 1 1 1 1 
1 1 1 1 2 2 1 1 0 
0 0 0 0 0 0 0 0 0 
0 0 0 0 0 0 0 0 0 
0 0 0 0 0 0 0 0 0 
0 0 0 0 0 0 0 0 0 
0 0 0 0 0 0 0 0 0 
0 0 0 0 0 0 0 0 0 
0 1 1 1 1 1 2 2 2 
2 2 2 2 2 1 1 1 1 
1 1 1 1 1 2 2 2 2 
2 2 2 2 2 2 1 1 1 
1 1 1 1 2 2 2 1 1 
1 0 0 0 0 0 0 0 0 
0 0 0 0 0 0 0 0 0 
0 0 0 0 0 0 0 0 0 
0 0 0 0 0 0 0 0 0 
0 0 0 0 0 0 0 0 0 
0 0 0 0 0 0 0 0 0 
0 1 1 1 1 1 1 2 2 
2 2 2 2 2 2 1 1 1 
1 1 1 1 1 1 2 2 2 
2 2 2 2 2 2 2 2 1 
1 1 1 1 1 2 2 2 1 
1 1 1 0 0 0 0 0 0 
0 0 0 0 0 0 0 0 0 
0 0 0 0 0 0 0 0 0 
0 0 0 0 0 0 0 0 0 
0 0 0 0 0 0 0 0 0 
0 0 0 0 0 0 0 0 0 
0 1 1 1 1 1 1 1 2 
2 2 2 2 2 2 2 2 2 
2 2 2 2 2 2 2 2 2 
2 2 2 2 2 2 2 2 2 
2 1 1 1 1 2 2 2 2 
1 1 1 1 1 0 0 0 0 
0 0 0 0 0 0 0 0 0 
0 0 0 0 0 0 0 0 0 
0 0 0 0 0 0 0 0 0 
0 0 0 0 0 0 0 0 0 
0 0 0 0 0 0 0 0 0 
0 2 1 1 1 1 1 1 2 
2 2 1 1 1 1 1 2 2 
2 2 2 2 2 2 2 2 2 
2 2 2 2 2 2 2 2 2 
2 2 2 2 2 2 2 2 2 
2 1 1 1 1 1 1 0 0 
0 0 0 0 0 0 0 0 0 
0 0 0 0 0 0 0 0 0 
0 0 0 0 0 0 0 0 0 
0 0 0 0 0 0 0 0 0 
0 0 0 0 0 0 0 0 0 
0 2 2 2 2 2 2 2 2 
2 2 2 1 1 1 1 1 2 
2 2 2 2 2 2 2 2 2 
2 2 2 2 2 2 2 2 2 
1 1 1 1 1 1 2 2 2 
2 2 1 1 1 1 1 2 2 
0 0 0 0 0 0 0 0 0 
0 0 0 0 0 0 0 0 0 
0 0 0 0 0 0 0 0 0 
0 0 0 0 0 0 0 0 0 
0 0 0 0 0 0 0 0 0 
0 2 2 2 2 2 2 2 2 
2 2 2 2 1 1 1 1 1 
2 2 2 2 1 1 1 2 2 
2 2 2 2 2 2 2 2 2 
2 1 1 1 1 1 1 2 2 
2 2 2 2 2 2 2 2 2 
2 1 0 0 0 0 0 0 0 
0 0 0 0 0 0 0 0 0 
0 0 0 0 0 0 0 0 0 
0 0 0 0 0 0 0 0 0 
0 0 0 0 0 0 0 0 0 
0 2 2 2 2 2 2 2 2 
2 2 2 2 2 1 1 1 1 
1 2 2 2 1 1 1 1 1 
2 2 2 2 2 2 2 2 2 
2 2 1 1 1 1 1 1 2 
1 1 1 1 2 2 2 2 2 
2 2 1 1 0 0 0 0 0 
0 0 0 0 0 0 0 0 0 
0 0 0 0 0 0 0 0 0 
0 0 0 0 0 0 0 0 0 
0 0 0 0 0 0 0 0 0 
0 2 2 2 2 2 2 2 2 
2 2 2 2 2 2 1 1 1 
1 2 2 2 2 1 1 1 1 
1 2 2 2 1 1 1 2 2 
2 2 2 1 1 1 1 1 2 
2 1 1 1 1 2 2 2 2 
2 2 2 1 1 1 0 0 0 
0 0 0 0 0 0 0 0 0 
0 0 0 0 0 0 0 0 0 
0 0 0 0 0 0 0 0 0 
0 0 0 0 0 0 0 0 0 
0 2 2 2 2 2 2 2 2 
2 1 1 1 1 1 2 2 2 
2 2 2 2 2 2 1 1 1 
1 1 2 2 1 1 1 1 2 
1 1 1 1 2 2 2 2 2 
2 2 1 1 1 1 2 2 2 
1 1 1 2 1 1 1 1 0 
0 0 0 0 0 0 0 0 0 
0 0 0 0 0 0 0 0 0 
0 0 0 0 0 0 0 0 0 
0 0 0 0 0 0 0 0 0 
0 2 2 2 2 2 2 2 2 
2 1 1 1 1 1 1 2 2 
2 2 2 2 2 2 2 1 1 
1 1 1 2 2 1 1 1 1 
2 1 1 1 1 2 2 2 2 
2 2 2 1 1 1 1 2 1 
1 1 1 1 2 1 1 1 1 
1 0 0 0 0 0 0 0 0 
0 0 0 0 0 0 0 0 0 
0 0 0 0 0 0 0 0 0 
0 0 0 0 0 0 0 0 0 
0 2 2 2 2 2 2 2 2 
2 2 1 1 1 1 1 1 2 
2 2 2 2 2 2 2 2 2 
2 2 2 2 2 1 1 1 1 
1 2 1 1 1 1 1 2 2 
2 2 2 2 1 1 1 1 2 
1 1 1 1 1 2 1 1 1 
1 1 1 0 0 0 0 0 0 
0 0 0 0 0 0 0 0 0 
0 0 0 0 0 0 0 0 0 
0 0 0 0 0 0 0 0 0 
0 2 2 2 2 2 2 2 2 
2 2 2 1 1 1 1 1 1 
2 2 2 2 2 2 2 2 2 
2 2 2 2 2 2 1 1 1 
1 1 2 1 1 1 1 1 2 
2 2 2 2 2 2 1 1 1 
2 1 1 1 1 1 2 2 2 
2 2 2 2 2 0 0 0 0 
0 0 0 0 0 0 0 0 0 
0 0 0 0 0 0 0 0 0 
0 0 0 0 0 0 0 0 0 
0 2 2 2 2 2 2 2 2 
2 2 2 2 1 1 1 1 1 
2 2 2 2 2 2 2 2 2 
2 2 2 2 2 2 2 1 1 
1 1 2 2 1 1 1 1 1 
2 2 1 1 1 1 2 2 2 
2 2 1 1 1 1 1 2 2 
2 2 2 2 2 2 1 0 0 
0 0 0 0 0 0 0 0 0 
0 0 0 0 0 0 0 0 0 
0 0 0 0 0 0 0 0 0 
0 2 2 2 2 2 2 2 2 
2 2 2 2 2 2 2 2 2 
2 2 2 2 2 2 2 2 2 
2 2 2 2 2 2 2 2 2 
2 2 2 2 2 2 2 2 2 
2 2 1 1 1 1 1 2 2 
2 2 2 2 2 2 2 2 2 
2 2 2 2 2 2 1 1 1 
0 0 0 0 0 0 0 0 0 
0 0 0 0 0 0 0 0 0 
0 0 0 0 0 0 0 0 0 
0 2 2 2 2 2 2 2 2 
2 2 2 2 1 1 1 2 2 
2 2 2 1 1 1 1 2 2 
2 2 2 1 1 1 1 1 1 
2 2 2 2 1 1 1 1 2 
2 2 2 1 1 1 1 1 2 
2 2 2 2 2 2 2 1 1 
1 2 2 2 2 2 2 1 1 
1 1 0 0 0 0 0 0 0 
0 0 0 0 0 0 0 0 0 
0 0 0 0 0 0 0 0 0 
0 2 2 2 2 2 2 2 2 
2 2 2 2 1 1 1 1 1 
2 2 2 2 1 1 1 1 2 
2 2 2 2 1 1 1 1 1 
1 2 2 2 2 1 1 1 1 
1 2 2 2 1 1 1 1 1 
2 2 2 2 2 2 2 1 1 
1 1 2 2 2 2 2 2 1 
1 1 1 1 0 0 0 0 0 
0 0 0 0 0 0 0 0 0 
0 0 0 0 0 0 0 0 0 
0 0 2 2 2 2 2 2 2 
2 2 2 2 2 1 1 1 1 
1 2 2 2 2 1 1 1 1 
2 2 2 2 2 1 1 1 1 
1 1 2 2 2 2 1 1 1 
1 1 2 2 2 1 1 1 1 
1 2 1 1 1 1 1 2 1 
1 1 1 1 2 2 2 2 2 
1 1 1 1 1 0 0 0 0 
0 0 0 0 0 0 0 0 0 
0 0 0 0 0 0 0 0 0 
0 0 0 2 2 2 2 2 2 
2 2 2 2 2 2 1 1 1 
1 1 2 2 2 1 1 1 1 
1 2 2 2 2 2 1 1 1 
1 1 1 2 2 2 2 1 1 
1 1 1 2 2 2 2 2 2 
2 2 2 1 1 1 1 1 2 
1 1 1 1 1 2 2 2 2 
2 1 1 1 1 1 0 0 0 
0 0 0 0 0 0 0 0 0 
0 0 0 0 0 0 0 0 0 
0 0 0 0 2 2 2 2 2 
2 2 2 2 2 2 2 1 1 
1 1 1 2 2 2 1 1 1 
1 1 2 2 2 2 2 2 2 
1 1 1 2 2 2 2 2 2 
1 1 1 1 2 2 1 1 1 
2 2 2 2 1 1 1 1 1 
2 2 1 1 1 1 2 2 2 
2 2 2 1 1 1 1 0 0 
0 0 0 0 0 0 0 0 0 
0 0 0 0 0 0 0 0 0 
0 0 0 0 0 2 2 2 2 
2 2 1 1 1 1 1 2 2 
2 2 2 2 2 2 2 1 1 
1 1 1 2 2 2 2 2 2 
2 2 2 2 2 1 1 1 1 
2 2 2 2 2 2 1 1 1 
1 2 2 2 2 1 1 1 1 
2 2 2 1 1 1 1 2 2 
2 2 2 2 2 2 2 2 0 
0 0 0 0 0 0 0 0 0 
0 0 0 0 0 0 0 0 0 
0 0 0 0 0 0 2 2 2 
2 2 2 1 1 1 1 1 2 
2 2 2 2 2 2 2 2 2 
2 2 2 2 2 1 1 1 1 
1 1 2 2 2 2 1 1 1 
1 2 2 1 1 1 2 1 1 
1 1 2 2 2 2 2 1 1 
1 2 2 2 2 2 2 2 2 
2 2 2 2 2 2 2 2 2 
0 0 0 0 0 0 0 0 0 
0 0 0 0 0 0 0 0 0 
0 0 0 0 0 0 0 2 2 
2 2 2 2 1 1 1 1 1 
2 2 2 2 2 2 2 2 2 
2 2 2 2 2 2 1 1 1 
1 1 1 2 2 2 2 1 1 
1 1 2 1 1 1 1 2 1 
1 1 1 2 2 2 2 2 2 
2 2 2 2 2 2 2 2 2 
2 2 2 2 2 2 2 2 2 
2 0 0 0 0 0 0 0 0 
0 0 0 0 0 0 0 0 0 
0 0 0 0 0 0 0 0 2 
2 2 2 2 2 1 1 1 1 
1 2 2 2 2 2 2 2 2 
2 2 2 2 2 2 2 1 1 
1 1 1 1 2 2 2 2 1 
1 1 1 2 1 1 1 1 2 
1 1 1 1 2 2 1 1 1 
1 1 2 2 2 2 2 2 2 
2 2 2 2 2 2 2 2 2 
2 2 0 0 0 0 0 0 0 
0 0 0 0 0 0 0 0 0 
0 0 0 0 0 0 0 0 0 
1 1 1 1 2 2 1 1 1 
1 1 2 2 2 1 1 1 2 
2 2 2 2 2 2 2 2 2 
1 1 1 1 1 2 2 2 2 
1 1 1 1 2 1 1 1 1 
2 2 2 2 2 2 1 1 1 
1 1 1 2 2 2 2 2 2 
2 2 2 2 2 2 2 2 2 
2 2 2 0 0 0 0 0 0 
0 0 0 0 0 0 0 0 0 
0 0 0 0 0 0 0 0 0 
0 1 1 1 1 1 2 2 2 
2 2 2 2 1 1 1 1 1 
2 2 2 1 1 1 1 1 2 
2 2 1 1 1 1 2 2 2 
2 1 1 1 1 2 1 1 1 
1 2 2 2 2 2 2 1 1 
1 1 1 1 2 2 1 1 1 
1 1 2 2 2 2 2 2 2 
2 2 2 2 0 0 0 0 0 
0 0 0 0 0 0 0 0 0 
0 0 0 0 0 0 0 0 0 
0 0 1 1 1 1 1 2 2 
2 2 2 2 2 1 1 1 1 
1 2 2 2 1 1 1 1 1 
2 2 2 2 2 2 2 2 2 
2 2 2 2 2 2 2 1 1 
1 2 2 2 2 2 2 2 1 
1 1 1 1 1 2 1 1 1 
1 1 1 2 2 2 2 2 2 
2 2 2 2 2 0 0 0 0 
0 0 0 0 0 0 0 0 0 
0 0 0 0 0 0 0 0 0 
0 0 0 1 1 1 1 1 2 
2 2 2 2 2 2 1 1 1 
1 1 2 2 2 1 1 1 1 
1 2 2 2 2 2 2 2 1 
1 1 1 1 1 2 2 2 2 
2 2 1 1 1 1 1 1 2 
2 2 2 2 2 2 2 1 1 
1 1 1 1 2 2 2 2 2 
2 2 2 2 2 2 0 0 0 
0 0 0 0 0 0 0 0 0 
0 0 0 0 0 0 0 0 0 
0 0 0 0 1 1 1 1 1 
2 2 2 2 2 2 2 1 1 
1 1 1 2 2 2 1 1 1 
1 1 2 2 2 2 2 2 2 
1 1 1 1 1 1 2 2 2 
2 2 2 1 1 1 1 1 1 
2 2 2 2 2 2 2 2 1 
1 1 1 1 2 2 2 2 2 
2 1 2 2 2 2 2 0 0 
0 0 0 0 0 0 0 0 0 
0 0 0 0 0 0 0 0 0 
0 0 0 0 0 1 1 1 2 
2 2 1 1 1 1 1 2 1 
1 1 2 2 2 2 2 1 1 
1 1 2 2 1 1 1 1 2 
2 1 1 1 1 1 1 2 2 
2 2 2 2 1 1 1 1 1 
1 2 2 2 2 2 2 2 2 
1 1 1 1 1 2 2 2 2 
2 1 1 1 1 2 2 2 0 
0 0 0 0 0 0 0 0 0 
0 0 0 0 0 0 0 0 0 
0 0 0 0 0 0 2 2 2 
2 2 2 1 1 1 1 1 2 
2 2 2 2 2 2 2 2 2 
2 2 2 2 1 1 1 1 1 
1 2 1 1 1 1 1 1 2 
2 2 2 2 2 1 1 1 1 
1 2 2 2 1 1 1 1 1 
2 2 2 2 2 2 2 2 2 
2 2 1 1 1 1 2 2 2 
0 0 0 0 0 0 0 0 0 
0 0 0 0 0 0 0 0 0 
0 0 0 0 0 0 0 2 2 
2 2 2 2 1 1 1 1 1 
2 2 2 2 2 2 2 2 2 
2 2 2 2 2 1 1 1 1 
1 1 2 2 2 2 2 2 2 
2 1 1 1 1 2 2 2 2 
2 2 2 1 1 1 1 1 1 
1 2 2 2 2 2 2 2 2 
2 2 2 1 1 1 1 2 2 
2 0 0 0 0 0 0 0 0 
0 0 0 0 0 0 0 0 0 
0 0 0 0 0 0 0 0 2 
2 2 2 2 2 1 1 1 1 
1 2 2 2 2 2 2 2 2 
2 2 2 2 2 2 2 1 1 
1 1 1 2 2 2 2 2 2 
2 2 1 1 1 1 2 2 2 
2 2 2 2 2 1 1 1 1 
1 1 2 2 2 2 2 2 2 
2 2 2 2 1 1 1 1 2 
2 2 0 0 0 0 0 0 0 
0 0 0 0 0 0 0 0 0 
0 0 0 0 0 0 0 0 0 
2 2 2 2 2 2 1 1 1 
1 1 2 2 2 2 2 2 2 
2 2 2 2 2 2 2 2 1 
1 1 1 1 2 2 2 2 2 
2 2 2 1 1 1 1 1 2 
2 2 2 2 2 2 1 1 1 
1 1 2 2 2 2 2 1 1 
1 1 1 2 2 1 1 1 1 
2 2 2 0 0 0 0 0 0 
0 0 0 0 0 0 0 0 0 
0 0 0 0 0 0 0 0 0 
0 1 1 1 2 2 2 2 2 
2 2 2 2 1 1 1 1 1 
2 2 2 2 2 2 2 2 2 
2 2 2 2 2 2 1 1 1 
1 2 2 2 1 1 1 1 1 
2 2 2 2 2 2 2 2 2 
2 2 2 2 2 2 2 2 1 
1 1 1 1 2 2 1 1 1 
2 2 2 2 0 0 0 0 0 
0 0 0 0 0 0 0 0 0 
0 0 0 0 0 0 0 0 0 
0 0 1 1 1 1 2 2 2 
2 2 2 2 1 1 1 1 1 
1 2 2 2 2 1 1 1 1 
1 2 2 2 2 2 2 1 1 
1 1 1 1 2 1 1 1 1 
2 2 2 1 1 1 1 1 2 
2 2 2 1 1 1 2 2 2 
1 1 1 1 1 2 2 2 2 
2 2 2 2 2 0 0 0 0 
0 0 0 0 0 0 0 0 0 
0 0 0 0 0 0 0 0 0 
0 0 0 1 1 1 1 2 2 
2 2 2 2 2 1 1 1 1 
1 1 2 2 2 2 1 1 1 
1 1 2 2 2 2 2 2 1 
1 1 1 1 1 2 2 2 2 
2 2 2 2 1 1 1 1 1 
2 2 2 2 1 1 1 1 2 
2 1 1 1 1 2 2 2 2 
2 2 2 2 2 2 0 0 0 
0 0 0 0 0 0 0 0 0 
0 0 0 0 0 0 0 0 0 
0 0 0 0 1 1 1 1 2 
2 2 2 2 2 2 2 1 1 
1 1 1 2 2 2 2 1 1 
1 1 1 2 2 2 2 2 2 
1 1 1 1 1 1 2 2 2 
2 2 2 2 2 1 1 1 1 
1 2 2 2 2 1 1 1 1 
1 2 1 1 1 1 2 2 2 
2 2 2 1 1 1 1 0 0 
0 0 0 0 0 0 0 0 0 
0 0 0 0 0 0 0 0 0 
0 0 0 0 0 1 1 1 1 
2 2 1 1 1 2 2 2 2 
2 1 1 1 2 2 2 2 1 
1 1 1 1 2 1 1 1 1 
2 2 1 1 1 1 1 2 2 
2 2 2 2 2 2 1 1 1 
1 1 2 2 2 2 1 1 1 
1 1 2 2 2 2 2 2 2 
2 2 2 2 1 1 1 1 0 
0 0 0 0 0 0 0 0 0 
0 0 0 0 0 0 0 0 0 
0 0 0 0 0 0 1 1 1 
2 2 1 1 1 1 2 2 2 
2 2 2 2 2 2 2 2 2 
2 1 1 1 1 2 1 1 1 
1 1 2 2 2 2 2 2 2 
1 1 1 1 1 2 2 1 1 
1 1 1 2 2 2 2 2 1 
1 1 2 2 2 2 2 2 1 
1 1 1 2 2 1 1 1 1 
0 0 0 0 0 0 0 0 0 
0 0 0 0 0 0 0 0 0 
0 0 0 0 0 0 0 1 1 
1 2 2 1 1 1 1 2 2 
2 2 2 2 2 2 2 2 2 
2 2 2 2 2 2 2 1 1 
1 1 1 2 2 2 2 2 2 
2 1 1 1 1 1 1 2 2 
2 2 2 2 1 1 1 2 2 
2 2 2 2 2 2 2 2 2 
1 1 1 1 1 2 1 1 1 
1 0 0 0 0 0 0 0 0 
0 0 0 0 0 0 0 0 0 
0 0 0 0 0 0 0 0 2 
2 2 2 2 1 1 1 1 2 
2 2 2 2 2 2 2 2 2 
1 1 1 1 2 2 2 2 1 
1 1 1 1 2 2 2 2 2 
2 2 1 1 1 1 1 1 2 
2 2 2 2 2 1 1 1 1 
1 1 2 1 1 1 2 2 2 
2 1 1 1 1 1 2 1 1 
1 1 0 0 0 0 0 0 0 
0 0 0 0 0 0 0 0 0 
0 0 0 0 0 0 0 0 0 
2 2 2 2 2 1 1 1 1 
2 2 2 2 2 2 2 2 2 
1 1 1 1 1 2 2 2 2 
1 1 1 1 1 2 2 1 1 
1 2 2 1 1 1 1 1 1 
2 2 2 2 2 2 1 1 1 
1 1 1 2 1 1 1 1 2 
2 2 1 1 1 1 1 2 2 
1 1 1 0 0 0 0 0 0 
0 0 0 0 0 0 0 0 0 
0 0 0 0 0 0 0 0 0 
0 2 2 2 2 2 1 1 1 
1 2 1 1 1 1 2 2 2 
2 1 1 1 1 1 2 2 2 
2 2 2 2 2 2 2 1 1 
1 1 1 2 2 2 2 2 2 
2 2 2 2 2 2 2 1 1 
1 1 1 1 2 1 1 1 1 
1 2 2 1 1 1 1 2 2 
2 1 1 1 0 0 0 0 0 
0 0 0 0 0 0 0 0 0 
0 0 0 0 0 0 0 0 0 
0 0 2 2 2 2 2 2 2 
2 2 2 1 1 1 1 1 1 
2 2 1 1 1 1 1 2 2 
2 2 2 2 2 2 2 2 1 
1 1 1 1 2 2 2 2 2 
2 2 2 2 1 1 1 2 2 
2 2 2 2 2 2 2 1 1 
1 1 1 2 2 2 2 2 2 
2 2 2 2 2 0 0 0 0 
0 0 0 0 0 0 0 0 0 
0 0 0 0 0 0 0 0 0 
0 0 0 2 2 2 2 2 2 
2 2 2 2 1 1 1 1 1 
1 2 2 1 1 1 1 1 2 
2 2 2 2 2 2 2 2 2 
1 1 1 1 1 2 2 2 1 
1 1 1 2 1 1 1 1 2 
1 1 1 1 1 2 2 2 1 
1 1 1 1 2 1 1 1 1 
2 2 2 2 2 2 0 0 0 
0 0 0 0 0 0 0 0 0 
0 0 0 0 0 0 0 0 0 
0 0 0 0 1 1 1 1 1 
2 2 2 2 2 1 1 1 1 
1 2 2 2 2 1 1 1 1 
2 2 1 1 1 1 2 2 2 
2 2 1 1 1 2 2 2 1 
1 1 1 1 2 1 1 1 1 
2 1 1 1 1 1 2 2 2 
2 2 2 2 2 2 1 1 1 
1 1 2 2 2 2 2 0 0 
0 0 0 0 0 0 0 0 0 
0 0 0 0 0 0 0 0 0 
0 0 0 0 0 1 1 1 1 
1 2 2 2 2 2 2 1 1 
1 2 2 2 2 2 2 2 2 
2 2 2 1 1 1 1 2 2 
2 2 2 2 2 2 2 2 2 
1 1 1 1 1 2 1 1 1 
1 2 1 1 1 1 1 2 2 
2 1 1 1 2 2 2 1 1 
1 1 1 2 2 2 2 2 0 
0 0 0 0 0 0 0 0 0 
0 0 0 0 0 0 0 0 0 
0 0 0 0 0 0 1 1 1 
1 1 1 2 2 2 2 2 2 
2 2 2 2 2 2 2 2 2 
2 2 2 2 1 1 1 1 1 
2 2 2 2 1 1 1 2 2 
2 1 1 1 1 2 2 1 1 
1 1 2 1 1 1 1 1 2 
2 1 1 1 1 2 2 2 1 
1 1 1 1 2 1 1 1 1 
0 0 0 0 0 0 0 0 0 
0 0 0 0 0 0 0 0 0 
0 0 0 0 0 0 0 1 1 
1 1 1 1 2 2 1 1 1 
1 1 2 2 2 2 2 2 2 
2 2 2 2 2 1 1 1 1 
1 2 2 2 2 1 1 1 1 
1 2 2 2 2 2 2 2 1 
1 1 1 2 2 2 2 2 2 
2 1 1 1 1 1 2 2 2 
1 1 1 1 1 2 1 1 1 
1 0 0 0 0 0 0 0 0 
0 0 0 0 0 0 0 0 0 
0 0 0 0 0 0 0 0 1 
1 1 1 1 1 2 2 1 1 
1 1 1 2 2 2 2 2 2 
2 2 2 2 2 2 1 1 1 
1 1 2 2 2 2 1 1 1 
1 1 2 2 2 2 2 2 2 
2 2 2 2 2 1 1 1 1 
2 2 1 1 1 1 1 2 2 
2 1 1 1 1 2 2 1 1 
1 1 0 0 0 0 0 0 0 
0 0 0 0 0 0 0 0 0 
0 0 0 0 0 0 0 0 0 
2 2 2 2 2 2 2 2 1 
1 1 1 1 1 2 2 2 2 
2 2 2 2 2 2 2 2 2 
2 2 2 2 2 2 2 1 1 
1 1 1 2 2 2 1 1 1 
1 1 2 2 2 2 1 1 1 
1 2 2 1 1 1 1 1 2 
2 2 2 2 2 2 2 2 1 
1 1 1 0 0 0 0 0 0 
0 0 0 0 0 0 0 0 0 
0 0 0 0 0 0 0 0 0 
0 2 2 2 2 2 2 2 2 
2 1 1 1 1 1 2 2 2 
2 2 2 2 2 2 2 2 2 
2 2 2 2 2 2 2 2 1 
1 1 1 1 2 2 2 1 1 
1 1 1 2 2 2 2 1 1 
1 1 2 2 2 2 2 2 2 
2 2 2 2 2 2 2 2 2 
1 1 1 1 0 0 0 0 0 
0 0 0 0 0 0 0 0 0 
0 0 0 0 0 0 0 0 0 
0 0 2 2 2 2 2 2 2 
2 2 2 1 1 1 2 2 2 
2 2 2 2 2 2 2 2 2 
2 2 2 2 2 2 2 2 2 
2 2 2 2 2 2 2 2 1 
1 1 1 1 2 2 2 2 1 
1 1 1 2 1 1 2 2 2 
2 1 1 1 1 2 2 2 2 
2 1 1 1 1 0 0 0 0 
0 0 0 0 0 0 0 0 0 
0 0 0 0 0 0 0 0 0 
0 0 0 2 2 2 2 2 2 
2 2 2 2 2 2 2 2 1 
1 1 1 2 2 2 2 2 2 
2 2 2 2 2 2 2 2 2 
1 1 1 1 1 1 2 2 1 
1 1 1 1 1 2 2 2 2 
2 1 1 1 2 1 1 1 1 
2 2 1 1 1 1 1 2 2 
2 2 1 1 1 1 0 0 0 
0 0 0 0 0 0 0 0 0 
0 0 0 0 0 0 0 0 0 
0 0 0 0 2 2 2 2 2 
2 2 2 2 2 2 2 2 2 
1 1 1 1 1 2 2 2 1 
1 1 1 1 2 2 2 2 2 
2 1 1 1 1 1 1 2 2 
2 1 1 1 1 2 2 2 1 
1 1 1 2 2 2 1 1 1 
1 2 2 1 1 1 1 1 2 
2 2 2 2 2 2 2 0 0 
0 0 0 0 0 0 0 0 0 
0 0 0 0 0 0 0 0 0 
0 0 0 0 0 2 2 2 2 
2 1 1 1 1 1 2 2 2 
2 1 1 1 1 1 2 2 2 
1 1 1 1 1 2 2 2 2 
2 2 1 1 1 1 1 1 2 
2 2 2 2 2 2 2 2 2 
1 1 1 1 2 2 2 1 1 
1 1 2 2 1 1 1 1 1 
2 2 2 2 2 2 2 2 0 
0 0 0 0 0 0 0 0 0 
0 0 0 0 0 0 0 0 0 
0 0 0 0 0 0 2 2 2 
2 2 1 1 1 1 1 2 2 
2 2 1 1 1 1 1 2 2 
2 1 1 1 1 1 2 2 2 
2 2 2 1 1 1 1 1 1 
2 2 2 2 2 1 1 1 2 
2 1 1 1 1 2 2 2 1 
1 1 1 2 2 1 1 1 1 
1 2 2 2 2 2 2 2 2 
0 0 0 0 0 0 0 0 0 
0 0 0 0 0 0 0 0 0 
0 0 0 0 0 0 0 2 2 
2 2 2 1 1 1 1 1 2 
2 2 2 2 1 1 1 2 2 
2 2 1 1 1 1 1 2 2 
2 2 2 2 2 2 1 1 1 
2 2 2 2 2 2 1 1 1 
1 2 2 1 1 1 2 2 2 
1 1 1 2 2 2 1 1 1 
1 2 2 2 2 2 2 2 2 
2 0 0 0 0 0 0 0 0 
0 0 0 0 0 0 0 0 0 
0 0 0 0 0 0 0 0 2 
2 2 2 2 1 1 1 1 1 
2 2 2 2 2 2 2 2 2 
2 2 2 1 1 1 1 1 2 
1 1 1 1 1 2 2 2 2 
2 2 2 2 2 2 2 1 1 
1 1 2 2 1 1 1 2 2 
2 2 2 2 2 2 2 2 2 
2 2 2 2 2 2 2 2 2 
2 0 0 0 0 0 0 0 0 
0 0 0 0 0 0 0 0 0 
0 0 0 0 0 0 0 0 0 
0 2 2 2 2 1 1 1 1 
1 2 2 1 1 1 1 1 2 
2 2 2 2 2 2 2 2 2 
2 1 1 1 1 1 2 2 2 
2 2 1 1 1 1 2 2 1 
1 1 1 2 2 2 1 1 2 
2 2 1 1 1 1 1 2 2 
2 2 2 2 2 2 2 2 2 
2 0 0 0 0 0 0 0 0 
0 0 0 0 0 0 0 0 0 
0 0 0 0 0 0 0 0 0 
0 0 0 2 2 2 2 1 1 
2 2 2 1 1 1 1 1 1 
2 2 1 1 1 2 2 2 2 
2 2 1 1 1 1 1 2 2 
2 2 2 1 1 1 1 1 2 
1 1 1 1 2 2 2 2 2 
2 2 2 1 1 1 1 1 2 
2 2 2 2 2 2 2 2 2 
2 0 0 0 0 0 0 0 0 
0 0 0 0 0 0 0 0 0 
0 0 0 0 0 0 0 0 0 
0 0 0 0 0 2 2 2 2 
2 2 2 2 1 1 1 1 1 
1 2 1 1 1 1 1 2 2 
2 2 2 1 1 1 1 1 2 
2 2 2 2 1 1 1 1 1 
2 2 1 1 1 2 2 2 2 
2 1 1 2 1 1 1 1 1 
2 2 2 2 2 2 2 2 2 
2 0 0 0 0 0 0 0 0 
0 0 0 0 0 0 0 0 0 
0 0 0 0 0 0 0 0 0 
0 0 0 0 0 0 0 2 2 
2 2 2 2 2 1 1 1 1 
1 1 2 1 1 1 1 1 2 
2 2 2 2 1 1 1 1 1 
2 2 2 2 2 1 1 1 1 
1 2 2 2 2 2 2 2 1 
1 1 1 1 2 1 1 1 1 
1 2 2 2 2 2 2 2 2 
2 0 0 0 0 0 0 0 0 
0 0 0 0 0 0 0 0 0 
0 0 0 0 0 0 0 0 0 
0 0 0 0 0 0 0 0 0 
2 2 2 2 2 2 2 1 1 
1 1 2 2 1 1 1 1 1 
2 2 2 2 2 2 2 2 2 
2 2 1 1 1 2 1 1 1 
1 1 2 2 2 2 2 2 2 
1 1 1 1 1 2 1 1 1 
1 1 2 2 2 2 2 2 2 
2 0 0 0 0 0 0 0 0 
0 0 0 0 0 0 0 0 0 
0 0 0 0 0 0 0 0 0 
0 0 0 0 0 0 0 0 0 
0 0 2 2 2 2 2 2 2 
2 2 2 2 2 1 1 1 2 
2 2 2 1 1 1 2 2 2 
2 1 1 1 1 1 2 2 2 
2 2 2 2 2 2 2 2 2 
2 1 1 1 1 1 2 2 1 
1 1 2 2 1 1 1 1 1 
2 0 0 0 0 0 0 0 0 
0 0 0 0 0 0 0 0 0 
0 0 0 0 0 0 0 0 0 
0 0 0 0 0 0 0 0 0 
0 0 0 0 1 1 1 1 1 
1 1 2 2 2 2 1 1 2 
2 2 1 1 1 1 1 2 2 
2 2 1 1 1 1 1 2 2 
2 2 2 2 1 1 1 1 1 
1 2 1 1 1 1 1 2 2 
2 2 2 2 1 1 1 1 1 
1 0 0 0 0 0 0 0 0 
0 0 0 0 0 0 0 0 0 
0 0 0 0 0 0 0 0 0 
0 0 0 0 0 0 0 0 0 
0 0 0 0 0 0 1 1 1 
1 1 1 2 2 2 2 2 2 
2 2 2 1 1 1 1 1 2 
2 2 2 1 1 1 1 1 2 
2 2 2 2 2 1 1 1 1 
1 1 2 2 2 1 1 1 2 
2 2 2 2 2 1 1 1 1 
1 0 0 0 0 0 0 0 0 
0 0 0 0 0 0 0 0 0 
0 0 0 0 0 0 0 0 0 
0 0 0 0 0 0 0 0 0 
0 0 0 0 0 0 0 0 1 
1 1 1 1 2 2 2 2 2 
2 2 2 2 1 1 1 1 1 
2 2 2 2 1 1 1 1 1 
2 2 2 2 2 2 1 1 1 
1 1 1 2 2 2 2 2 2 
2 2 2 2 2 2 1 1 1 
1 0 0 0 0 0 0 0 0 
0 0 0 0 0 0 0 0 0 
0 0 0 0 0 0 0 0 0 
0 0 0 0 0 0 0 0 0 
0 0 0 0 0 0 0 0 0 
0 1 1 1 1 2 2 2 2 
2 2 2 2 2 1 1 1 1 
1 2 2 2 2 2 2 2 2 
2 2 2 2 2 2 2 1 1 
1 1 1 1 2 2 2 2 2 
2 2 2 2 2 2 2 1 1 
1 0 0 0 0 0 0 0 0 
0 0 0 0 0 0 0 0 0 
0 0 0 0 0 0 0 0 0 
0 0 0 0 0 0 0 0 0 
0 0 0 0 0 0 0 0 0 
0 0 0 1 1 1 2 2 2 
2 2 2 2 2 2 2 2 2 
2 2 2 1 1 1 2 2 2 
2 2 2 1 1 1 1 2 2 
2 2 2 2 2 2 2 2 2 
2 2 1 1 1 1 2 2 2 
1 0 0 0 0 0 0 0 0 
0 0 0 0 0 0 0 0 0 
0 0 0 0 0 0 0 0 0 
0 0 0 0 0 0 0 0 0 
0 0 0 0 0 0 0 0 0 
0 0 0 0 0 1 2 2 2 
1 1 1 1 2 2 2 2 2 
2 2 2 1 1 1 1 1 2 
2 2 2 1 1 1 1 1 2 
2 2 2 2 2 1 1 1 1 
1 2 2 1 1 1 1 1 1 
1 0 0 0 0 0 0 0 0 
0 0 0 0 0 0 0 0 0 
0 0 0 0 0 0 0 0 0 
0 0 0 0 0 0 0 0 0 
0 0 0 0 0 0 0 0 0 
0 0 0 0 0 0 0 2 1 
1 1 1 1 1 1 1 2 2 
2 2 2 2 1 1 1 1 1 
2 2 2 2 1 1 1 1 1 
2 2 2 2 2 1 1 1 1 
1 1 2 2 1 1 1 1 1 
1 0 0 0 0 0 0 0 0 
0 0 0 0 0 0 0 0 0 
0 0 0 0 0 0 0 0 0 
0 0 0 0 0 0 0 0 0 
0 0 0 0 0 0 0 0 0 
0 0 0 0 0 0 0 0 0 
1 1 1 1 1 1 1 1 2 
2 2 2 2 2 1 1 1 1 
1 2 2 2 1 1 1 1 1 
1 2 2 2 2 2 1 1 1 
1 1 1 2 2 1 1 1 1 
1 0 0 0 0 0 0 0 0 
0 0 0 0 0 0 0 0 0 
0 0 0 0 0 0 0 0 0 
0 0 0 0 0 0 0 0 0 
0 0 0 0 0 0 0 0 0 
0 0 0 0 0 0 0 0 0 
0 0 1 1 1 1 1 1 1 
2 2 2 2 2 1 1 1 1 
1 1 2 2 2 1 1 1 1 
1 1 2 2 2 2 2 1 1 
1 1 1 1 1 2 1 1 1 
1 0 0 0 0 0 0 0 0 
0 0 0 0 0 0 0 0 0 
0 0 0 0 0 0 0 0 0 
0 0 0 0 0 0 0 0 0 
0 0 0 0 0 0 0 0 0 
0 0 0 0 0 0 0 0 0 
0 0 0 0 0 0 0 0 0 
0 0 0 0 0 0 0 0 0 
0 0 0 0 0 0 0 0 0 
0 0 0 0 0 0 0 0 0 
0 0 0 0 0 0 0 0 0 
0 0 0 0 0 0 0 0 0 
0 0 0 0 0 0 0 0 0 
0 0 0 0 0 0 0 0 0 
0 0 0 0 0 0 0 0 0 
0 0 0 0 0 0 0 0 0 
0 0 0 0 0 0 0 0 0 
0 0 0 0 0 0 0 0 0 
0 0 0 0 0 0 0 0 0 
0 0 0 0 0 0 0 0 0 
0 0 0 0 0 0 0 0 0 
0 0 0 0 0 0 0 0 0 
0 0 0 0 0 0 0 0 0 
0 0 0 0 0 0 0 0 0 
0 0 0 0 0 0 0 0 0 
0 0 0 0 0 0 0 0 0 
0 0 0 0 0 0 0 0 0 
0 0 0 0 0 0 0 0 0 
0 0 0 0 0 0 0 0 0 
0 0 0 0 0 0 0 0 0 
0 0 0 0 0 0 0 0 0 
0 0 0 0 0 0 0 0 0 
0 0 0 0 0 0 0 0 0 
0 0 0 0 0 0 0 0 0 
0 0 0 0 0 0 0 0 0 
0 0 0 0 0 0 0 0 0 
0 0 0 0 0 0 0 0 0 
0 0 0 0 0 0 0 0 0 
0 0 0 0 0 0 0 0 0 
0 0 0 0 0 0 0 0 0 
0 0 0 0 0 0 0 0 0 
0 0 0 0 0 0 0 0 0 
0 0 0 0 0 0 0 0 0 
0 0 0 0 0 0 0 0 0 
0 0 0 0 0 0 0 0 0 
0 0 0 0 0 0 0 0 0 
0 0 0 0 0 0 0 0 0 
0 0 0 0 0 0 0 0 0 
0 0 0 0 0 0 0 0 0 
0 0 0 0 0 0 0 0 0 
0 0 0 0 0 0 0 0 0 
0 0 0 0 0 0 0 0 0 
0 0 0 0 0 0 0 0 0 
0 0 0 0 0 0 0 0 0 
0 0 0 0 0 0 0 0 0 
0 0 0 0 0 0 0 0 0 
0 0 0 0 0 0 0 0 0 
0 0 0 0 0 0 0 0 0 
0 0 0 0 0 0 0 0 0 
0 0 0 0 0 0 0 0 0 
0 0 0 0 0 0 0 0 0 
0 0 0 0 0 0 0 0 0 
0 0 0 0 0 0 0 0 0 
0 0 0 0 0 0 0 0 0 
0 0 0 0 0 0 0 0 0 
0 0 0 0 0 0 0 0 0 
0 0 0 0 0 0 0 0 0 
0 0 0 0 0 0 0 0 0 
0 0 0 0 0 0 0 0 0 
0 0 0 0 0 0 0 0 0 
0 0 0 0 0 0 0 0 0 
0 0 0 0 0 0 0 0 0 
0 0 0 0 0 0 0 0 0 
0 0 0 0 0 0 0 0 0 
0 0 0 0 0 0 0 0 0 
0 0 0 0 0 0 0 0 0 
0 0 0 0 0 0 0 0 0 
0 0 0 0 0 0 0 0 0 
0 0 0 0 0 0 0 0 0 
0 0 0 0 0 0 0 0 0 
0 0 0 0 0 0 0 0 0 
0 0 0 0 0 0 0 0 0 
0 0 0 0 0 0 0 0 0 
0 0 0 0 0 0 0 0 0 
0 0 0 0 0 0 0 0 0 
0 0 0 0 0 0 0 0 0 
0 0 0 0 0 0 0 0 0 
0 0 0 0 0 0 0 0 0 
0 0 0 0 0 0 0 0 0 
0 0 0 0 0 0 0 0 0 
0 0 0 0 0 0 0 0 0 
0 0 0 0 0 0 0 0 0 
0 0 0 0 0 0 0 0 0 
0 0 0 0 0 0 0 0 0 
0 0 0 0 0 0 0 0 0 
0 0 0 0 0 0 0 0 0 
0 0 0 0 0 0 0 0 0 
0 0 0 0 0 0 0 0 0 
0 0 0 0 0 0 0 0 0 
0 0 0 0 0 0 0 0 0 
0 0 0 0 0 0 0 0 0 
0 0 0 0 0 0 0 0 0 
0 0 0 0 0 0 0 0 0 
0 0 0 0 0 0 0 0 0 
0 0 0 0 0 0 0 0 0 
0 0 0 0 0 0 0 0 0 
0 0 0 0 0 0 0 0 0 
0 0 0 0 0 0 0 0 0 
0 0 0 0 0 0 0 0 0 
0 0 0 0 0 0 0 0 0 
0 0 0 0 0 0 0 0 0 
0 0 0 0 0 0 0 0 0 
0 0 0 0 0 0 0 0 0 
0 0 0 0 0 0 0 0 0 
0 
CellId 1 10000 long
0 0 0 0 0 0 0 0 0 
0 0 0 0 0 0 0 0 0 
0 0 0 0 0 0 0 0 0 
0 0 0 0 0 0 0 0 0 
0 0 0 0 0 0 0 0 0 
0 0 0 0 0 0 0 0 0 
0 0 0 0 0 0 0 0 0 
0 0 0 0 0 0 0 0 0 
0 0 0 0 0 0 0 0 0 
0 0 0 0 0 0 0 0 0 
0 0 0 0 0 0 0 0 0 
0 0 0 0 0 0 0 0 0 
0 0 0 0 0 0 0 0 0 
0 0 0 0 0 0 0 0 0 
0 0 0 0 0 0 0 0 0 
0 0 0 0 0 0 0 0 0 
0 0 0 0 0 0 0 0 0 
0 0 0 0 0 0 0 0 0 
0 0 0 0 0 0 0 0 0 
0 0 0 0 0 0 0 0 0 
0 0 0 0 0 0 0 0 0 
0 0 0 0 0 0 0 0 0 
0 0 0 0 0 0 0 0 0 
0 0 0 0 0 0 0 0 0 
0 0 0 0 0 0 0 0 0 
0 0 0 0 0 0 0 0 0 
0 0 0 0 0 0 0 0 0 
0 0 0 0 0 0 0 0 0 
0 0 0 0 0 0 0 0 0 
0 0 0 0 0 0 0 0 0 
0 0 0 0 0 0 0 0 0 
0 0 0 0 0 0 0 0 0 
0 0 0 0 0 0 0 0 0 
0 0 0 0 0 0 0 0 0 
0 0 0 0 0 0 0 0 0 
0 0 0 0 0 0 0 0 0 
0 0 0 0 0 0 0 0 0 
0 0 0 0 0 0 0 0 0 
0 0 0 0 0 0 0 0 0 
0 0 0 0 0 0 0 0 0 
0 0 0 0 0 0 0 0 0 
0 0 0 0 0 0 0 0 0 
0 0 0 0 0 0 0 0 0 
0 0 0 0 0 0 0 0 0 
0 0 0 0 0 0 0 0 0 
0 0 0 0 0 0 0 0 0 
0 0 0 0 0 0 0 0 0 
0 0 0 0 0 0 0 0 0 
0 0 0 0 0 0 0 0 0 
0 0 0 0 0 0 0 0 0 
0 0 0 0 0 0 0 0 0 
0 0 0 0 0 0 0 0 0 
0 0 0 0 0 0 0 0 0 
0 0 0 0 0 0 0 0 0 
0 0 0 0 0 0 0 0 0 
0 0 0 0 0 0 0 0 0 
0 0 0 0 0 0 0 0 0 
0 0 0 0 0 0 0 0 0 
0 0 0 0 0 0 0 0 0 
0 0 0 0 0 0 0 0 0 
0 0 0 0 0 0 0 0 0 
0 0 0 0 0 0 0 0 0 
0 0 0 0 0 0 0 0 0 
0 0 0 0 0 0 0 0 0 
0 0 0 0 0 0 0 0 0 
0 0 0 0 0 0 0 0 0 
0 0 0 0 0 0 0 0 0 
0 0 0 0 0 0 0 0 0 
0 0 0 0 0 0 0 0 0 
0 0 0 0 0 0 0 0 0 
0 0 0 0 0 0 0 0 0 
0 0 0 0 0 0 0 0 0 
0 0 0 0 0 0 0 0 0 
0 0 0 0 0 0 0 0 0 
0 0 0 0 0 0 0 0 0 
0 0 0 0 0 0 0 0 0 
0 0 0 0 0 0 0 0 0 
0 0 0 0 0 0 0 0 0 
0 0 0 0 0 0 0 0 0 
0 0 0 0 0 0 0 0 0 
0 0 0 0 0 0 0 0 0 
0 0 0 0 0 0 0 0 0 
0 0 0 0 0 0 0 0 0 
0 0 0 0 0 0 0 0 0 
0 0 0 0 0 0 0 0 0 
0 0 0 0 0 0 0 0 0 
0 0 0 0 0 0 0 0 0 
0 0 0 0 0 0 0 0 0 
0 0 0 0 0 0 0 0 0 
0 0 0 0 0 0 0 0 0 
0 0 0 0 0 0 0 0 0 
0 0 0 0 0 0 0 0 0 
0 0 0 0 0 0 0 0 0 
0 0 0 0 0 0 0 0 0 
0 0 0 0 0 0 0 0 0 
0 0 0 0 0 0 0 0 0 
0 0 0 0 0 0 0 0 0 
0 0 0 0 0 0 0 0 0 
0 0 0 0 0 0 0 0 0 
0 0 0 0 0 0 0 0 0 
0 0 0 0 0 0 0 0 0 
0 0 0 0 0 0 0 0 0 
0 0 0 0 0 0 0 0 0 
0 0 0 0 0 0 0 0 0 
0 0 0 0 0 0 0 0 0 
0 0 0 0 0 0 0 0 0 
0 0 0 0 0 0 0 0 0 
0 0 0 0 0 0 0 0 0 
0 0 0 0 0 0 0 0 0 
0 0 0 0 0 0 0 0 0 
0 0 0 0 0 0 0 0 0 
0 0 0 0 0 0 0 0 0 
0 0 0 0 0 0 0 0 0 
0 0 0 0 0 0 0 0 0 
0 0 0 0 0 0 0 0 0 
0 0 0 0 0 0 0 0 0 
0 0 0 0 0 0 0 0 0 
0 0 0 0 0 0 0 0 0 
0 0 0 0 0 0 0 0 0 
0 0 0 0 0 0 0 0 0 
0 0 0 0 0 0 0 0 0 
0 0 0 0 0 0 0 0 0 
0 0 0 0 0 0 0 0 0 
0 0 0 0 0 0 0 0 0 
0 0 0 0 0 0 0 0 0 
0 0 0 0 0 0 0 0 0 
0 0 0 0 0 0 0 0 0 
0 0 0 0 0 0 0 0 0 
0 0 0 0 0 0 0 0 0 
0 0 0 0 0 0 0 0 0 
0 0 0 0 0 0 0 0 0 
0 0 0 0 0 0 0 0 0 
0 0 0 0 0 0 0 0 0 
0 0 0 0 0 0 0 0 0 
0 0 0 0 0 0 0 0 0 
0 0 0 0 0 0 0 0 0 
0 0 0 0 0 0 0 0 0 
0 0 0 0 0 0 0 0 0 
0 0 0 0 0 0 0 0 0 
0 0 0 0 0 0 0 0 0 
0 0 0 0 0 0 0 0 0 
0 0 0 0 0 0 0 0 0 
0 0 0 0 0 0 0 0 0 
0 0 0 0 0 0 0 0 0 
0 0 0 0 0 0 0 0 0 
0 0 0 0 0 0 0 0 0 
0 0 0 0 0 0 0 0 0 
0 0 0 0 0 0 0 0 0 
0 0 0 0 0 0 0 0 0 
0 0 0 0 0 0 0 0 0 
0 0 0 0 0 0 0 0 0 
0 0 0 0 0 0 0 0 0 
0 0 0 0 0 0 0 0 0 
0 0 0 0 0 0 0 0 0 
0 0 0 0 0 0 0 0 0 
0 0 0 0 0 0 0 0 0 
0 0 0 0 0 0 0 0 0 
0 0 0 0 0 0 0 0 0 
0 0 0 0 0 0 0 0 0 
0 0 0 0 0 0 0 0 0 
0 0 0 0 0 0 0 0 0 
0 0 0 0 0 0 0 0 0 
0 0 0 0 0 0 0 0 0 
0 0 0 0 0 0 0 0 0 
0 0 0 0 0 0 0 0 0 
0 0 0 0 0 0 0 0 0 
0 0 0 0 0 0 0 0 0 
0 0 0 0 0 0 0 0 0 
0 0 0 0 0 0 0 0 0 
0 0 0 0 0 0 0 0 0 
0 9 9 9 9 1 1 1 1 
1 1 1 1 2 2 2 2 2 
2 2 2 2 4 4 4 4 4 
4 5 5 5 7 7 7 7 7 
7 7 7 7 6 6 17 17 0 
0 0 0 0 0 0 0 0 0 
0 0 0 0 0 0 0 0 0 
0 0 0 0 0 0 0 0 0 
0 0 0 0 0 0 0 0 0 
0 0 0 0 0 0 0 0 0 
0 0 0 0 0 0 0 0 0 
0 9 9 9 9 9 1 1 1 
1 1 1 1 1 2 2 2 2 
2 2 2 2 2 4 4 4 4 
4 4 5 5 5 5 7 7 7 
7 7 7 7 6 6 6 17 17 
17 0 0 0 0 0 0 0 0 
0 0 0 0 0 0 0 0 0 
0 0 0 0 0 0 0 0 0 
0 0 0 0 0 0 0 0 0 
0 0 0 0 0 0 0 0 0 
0 0 0 0 0 0 0 0 0 
0 9 9 9 9 9 9 1 1 
1 1 1 1 1 1 2 2 2 
2 2 2 2 2 2 4 4 4 
4 4 4 5 5 5 5 5 7 
7 7 7 7 7 6 6 6 17 
17 17 17 0 0 0 0 0 0 
0 0 0 0 0 0 0 0 0 
0 0 0 0 0 0 0 0 0 
0 0 0 0 0 0 0 0 0 
0 0 0 0 0 0 0 0 0 
0 0 0 0 0 0 0 0 0 
0 9 9 9 9 9 9 9 1 
1 1 1 1 1 1 1 3 3 
3 3 3 3 13 13 13 13 13 
4 4 4 4 5 5 5 5 5 
5 7 7 7 7 6 6 6 6 
17 17 17 17 17 0 0 0 0 
0 0 0 0 0 0 0 0 0 
0 0 0 0 0 0 0 0 0 
0 0 0 0 0 0 0 0 0 
0 0 0 0 0 0 0 0 0 
0 0 0 0 0 0 0 0 0 
0 8 9 9 9 9 9 9 10 
10 10 11 11 11 11 11 3 3 
3 3 3 3 3 13 13 13 13 
13 4 4 4 4 5 5 5 5 
5 5 5 5 5 6 6 6 6 
6 17 17 17 17 17 17 0 0 
0 0 0 0 0 0 0 0 0 
0 0 0 0 0 0 0 0 0 
0 0 0 0 0 0 0 0 0 
0 0 0 0 0 0 0 0 0 
0 0 0 0 0 0 0 0 0 
0 8 8 8 8 8 10 10 10 
10 10 10 11 11 11 11 11 3 
3 3 3 3 3 3 13 13 13 
13 13 13 14 14 14 14 14 14 
16 16 16 16 16 16 6 6 6 
6 6 17 17 17 17 17 18 18 
0 0 0 0 0 0 0 0 0 
0 0 0 0 0 0 0 0 0 
0 0 0 0 0 0 0 0 0 
0 0 0 0 0 0 0 0 0 
0 0 0 0 0 0 0 0 0 
0 8 8 8 8 8 8 10 10 
10 10 10 10 11 11 11 11 11 
3 3 3 3 24 24 24 13 13 
13 13 13 13 14 14 14 14 14 
14 16 16 16 16 16 16 6 6 
6 6 6 18 18 18 18 18 18 
18 31 0 0 0 0 0 0 0 
0 0 0 0 0 0 0 0 0 
0 0 0 0 0 0 0 0 0 
0 0 0 0 0 0 0 0 0 
0 0 0 0 0 0 0 0 0 
0 8 8 8 8 8 8 8 10 
10 10 10 10 10 11 11 11 11 
11 3 3 3 24 24 24 24 24 
13 13 13 13 13 14 14 14 14 
14 14 16 16 16 16 16 16 6 
28 28 28 28 18 18 18 18 18 
18 18 31 31 0 0 0 0 0 
0 0 0 0 0 0 0 0 0 
0 0 0 0 0 0 0 0 0 
0 0 0 0 0 0 0 0 0 
0 0 0 0 0 0 0 0 0 
0 19 8 8 8 8 8 8 8 
10 10 10 10 10 10 11 11 11 
11 23 23 23 23 24 24 24 24 
24 13 13 13 25 25 25 14 14 
14 14 14 16 16 16 16 16 15 
15 28 28 28 28 18 18 18 18 
18 18 18 31 31 31 0 0 0 
0 0 0 0 0 0 0 0 0 
0 0 0 0 0 0 0 0 0 
0 0 0 0 0 0 0 0 0 
0 0 0 0 0 0 0 0 0 
0 19 19 19 20 20 20 8 8 
8 21 21 21 21 21 10 22 22 
22 22 23 23 23 23 24 24 24 
24 24 12 12 25 25 25 25 14 
27 27 27 27 15 15 15 15 15 
15 15 28 28 28 28 18 18 18 
29 29 29 18 31 31 31 31 0 
0 0 0 0 0 0 0 0 0 
0 0 0 0 0 0 0 0 0 
0 0 0 0 0 0 0 0 0 
0 0 0 0 0 0 0 0 0 
0 19 19 19 19 20 20 20 20 
20 21 21 21 21 21 21 22 22 
22 22 22 23 23 23 23 24 24 
24 24 24 12 12 25 25 25 25 
14 27 27 27 27 15 15 15 15 
15 15 15 28 28 28 28 18 29 
29 29 29 29 30 31 31 31 31 
31 0 0 0 0 0 0 0 0 
0 0 0 0 0 0 0 0 0 
0 0 0 0 0 0 0 0 0 
0 0 0 0 0 0 0 0 0 
0 19 19 19 19 19 20 20 20 
20 20 21 21 21 21 21 21 22 
22 22 22 22 23 23 23 23 12 
12 12 12 12 12 25 25 25 25 
25 14 27 27 27 27 27 15 15 
15 15 15 15 28 28 28 28 18 
29 29 29 29 29 30 31 31 31 
31 31 31 0 0 0 0 0 0 
0 0 0 0 0 0 0 0 0 
0 0 0 0 0 0 0 0 0 
0 0 0 0 0 0 0 0 0 
0 19 19 19 19 19 19 20 20 
20 20 20 21 21 21 21 21 21 
22 22 22 22 22 23 23 23 23 
12 12 12 12 12 12 25 25 25 
25 25 14 27 27 27 27 27 15 
15 15 15 15 15 15 28 28 28 
42 29 29 29 29 29 30 30 30 
30 30 30 30 30 0 0 0 0 
0 0 0 0 0 0 0 0 0 
0 0 0 0 0 0 0 0 0 
0 0 0 0 0 0 0 0 0 
0 32 19 19 19 19 19 19 20 
20 20 20 20 21 21 21 21 21 
22 22 22 22 22 22 23 23 23 
23 12 12 12 12 12 12 25 25 
25 25 26 26 27 27 27 27 27 
15 15 40 40 40 40 42 42 42 
42 42 29 29 29 29 29 30 30 
30 30 30 30 30 30 44 0 0 
0 0 0 0 0 0 0 0 0 
0 0 0 0 0 0 0 0 0 
0 0 0 0 0 0 0 0 0 
0 32 32 32 32 19 19 19 19 
20 20 20 20 20 20 35 35 35 
35 22 22 22 22 22 22 23 23 
23 23 12 12 12 12 12 12 38 
38 38 38 26 26 26 26 26 26 
26 26 40 40 40 40 40 42 42 
42 42 42 42 42 42 42 30 30 
30 30 30 30 30 30 44 44 44 
0 0 0 0 0 0 0 0 0 
0 0 0 0 0 0 0 0 0 
0 0 0 0 0 0 0 0 0 
0 32 32 32 32 32 33 33 33 
33 33 33 20 34 34 34 35 35 
35 35 35 36 36 36 36 50 50 
23 23 23 37 37 37 37 37 37 
38 38 38 38 39 39 39 39 26 
26 26 26 40 40 40 40 40 42 
42 42 42 42 42 42 42 43 43 
43 58 58 58 58 58 58 44 44 
44 44 0 0 0 0 0 0 0 
0 0 0 0 0 0 0 0 0 
0 0 0 0 0 0 0 0 0 
0 32 32 32 32 32 32 33 33 
33 33 33 33 34 34 34 34 34 
35 35 35 35 36 36 36 36 50 
50 50 50 50 37 37 37 37 37 
37 38 38 38 38 39 39 39 39 
39 26 26 26 40 40 40 40 40 
42 42 42 42 42 42 42 43 43 
43 43 58 58 58 58 58 58 44 
44 44 44 44 0 0 0 0 0 
0 0 0 0 0 0 0 0 0 
0 0 0 0 0 0 0 0 0 
0 0 32 32 32 32 32 32 33 
33 33 33 33 33 34 34 34 34 
34 35 35 35 35 36 36 36 36 
50 50 50 50 50 37 37 37 37 
37 37 38 38 38 38 39 39 39 
39 39 26 26 26 40 40 40 40 
40 55 41 41 41 41 41 56 43 
43 43 43 43 58 58 58 58 58 
44 44 44 44 44 0 0 0 0 
0 0 0 0 0 0 0 0 0 
0 0 0 0 0 0 0 0 0 
0 0 0 32 32 32 32 32 32 
33 33 33 33 33 33 34 34 34 
34 34 35 35 35 36 36 36 36 
36 50 50 50 50 50 37 37 37 
37 37 37 38 38 38 38 39 39 
39 39 39 26 26 26 26 55 55 
55 55 55 41 41 41 41 41 56 
43 43 43 43 43 58 58 58 58 
58 44 44 44 44 44 0 0 0 
0 0 0 0 0 0 0 0 0 
0 0 0 0 0 0 0 0 0 
0 0 0 0 32 45 45 45 45 
45 33 33 33 33 33 33 34 34 
34 34 34 35 35 35 36 36 36 
36 36 50 50 50 50 50 50 50 
37 37 37 66 38 38 38 38 38 
39 39 39 39 26 26 54 54 54 
55 55 55 55 41 41 41 41 41 
56 56 43 43 43 43 58 58 58 
58 59 59 44 44 44 44 0 0 
0 0 0 0 0 0 0 0 0 
0 0 0 0 0 0 0 0 0 
0 0 0 0 0 45 45 45 45 
45 45 46 46 46 46 46 47 47 
47 47 47 47 35 35 35 36 36 
36 36 36 50 50 50 50 50 50 
50 66 66 66 66 52 52 52 52 
38 38 38 69 69 69 54 54 54 
54 55 55 55 55 41 41 41 41 
56 56 56 43 43 43 43 58 58 
58 59 59 59 59 59 59 59 0 
0 0 0 0 0 0 0 0 0 
0 0 0 0 0 0 0 0 0 