# vtk DataFile Version 5.1
vtk output
ASCII
DATASET STRUCTURED_POINTS
DIMENSIONS 100 100 1
SPACING 1 1 1
ORIGIN 0 0 0
POINT_DATA 10000
FIELD FieldData 3
CellType 1 10000 char
0 0 0 0 0 0 0 0 0 
0 0 0 0 0 0 0 0 0 
0 0 0 0 0 0 0 0 0 
0 0 0 0 0 0 0 0 0 
0 0 0 0 0 0 0 0 0 
0 0 0 0 0 0 0 0 0 
0 0 0 0 0 0 0 0 0 
0 0 0 0 0 0 0 0 0 
0 0 0 0 0 0 0 0 0 
0 0 0 0 0 0 0 0 0 
0 0 0 0 0 0 0 0 0 
0 0 0 0 0 0 0 0 0 
0 0 0 0 0 0 0 0 0 
0 0 0 0 0 0 0 0 0 
0 0 0 0 0 0 0 0 0 
0 0 0 0 0 0 0 0 0 
0 0 0 0 0 0 0 0 0 
0 0 0 0 0 0 0 0 0 
0 0 0 0 0 0 0 0 0 
0 0 0 0 0 0 0 0 0 
0 0 0 0 0 0 0 0 0 
0 0 0 0 0 0 0 0 0 
0 0 0 0 0 0 0 0 0 
0 0 0 0 0 0 0 0 0 
0 0 0 0 0 0 0 0 0 
0 0 0 0 0 0 0 0 0 
0 0 0 0 0 0 0 0 0 
0 0 0 0 0 0 0 0 0 
0 0 0 0 0 0 0 0 0 
0 0 0 0 0 0 0 0 0 
0 0 0 0 0 0 0 0 0 
0 0 0 0 0 0 0 0 0 
0 0 0 0 0 0 0 0 0 
0 0 0 0 0 0 0 0 0 
0 0 0 0 0 0 0 0 0 
0 0 0 0 0 0 0 0 0 
0 0 0 0 0 0 0 0 0 
0 0 0 0 0 0 0 0 0 
0 0 0 0 0 0 0 0 0 
0 0 0 0 0 0 0 0 0 
0 0 0 0 0 0 0 0 0 
0 0 0 0 0 0 0 0 0 
0 0 0 0 0 0 0 0 0 
0 0 0 0 0 0 0 0 0 
0 0 0 0 0 0 0 0 0 
0 0 0 0 0 0 0 0 0 
0 0 0 0 0 0 0 0 0 
0 0 0 0 0 0 0 0 0 
0 0 0 0 0 0 0 0 0 
0 0 0 0 0 0 0 0 0 
0 0 0 0 0 0 0 0 0 
0 0 0 0 0 0 0 0 0 
0 0 0 0 0 0 0 0 0 
0 0 0 0 0 0 0 0 0 
0 0 0 0 0 0 0 0 0 
0 0 0 0 0 0 0 0 0 
0 0 0 0 0 0 0 0 0 
0 0 0 0 0 0 0 0 0 
0 0 0 0 0 0 0 0 0 
0 0 0 0 0 0 0 0 0 
0 0 0 0 0 0 0 0 0 
0 0 0 0 0 0 0 0 0 
0 0 0 0 0 0 0 0 0 
0 0 0 0 0 0 0 0 0 
0 0 0 0 0 0 0 0 0 
0 0 0 0 0 0 0 0 0 
0 0 0 0 0 0 0 0 0 
0 0 0 0 0 0 0 0 0 
0 0 0 0 0 0 0 0 0 
0 0 0 0 0 0 0 0 0 
0 0 0 0 0 0 0 0 0 
0 0 0 0 0 0 0 0 0 
0 0 0 0 0 0 0 0 0 
0 0 0 0 0 0 0 0 0 
0 0 0 0 0 0 0 0 0 
0 0 0 0 0 0 0 0 0 
0 0 0 0 0 0 0 0 0 
0 0 0 0 0 0 0 0 0 
0 0 0 0 0 0 0 0 0 
0 0 0 0 0 0 0 0 0 
0 0 0 0 0 0 0 0 0 
0 0 0 0 0 0 0 0 0 
0 0 0 0 0 0 0 0 0 
0 0 0 0 0 0 0 0 0 
0 0 0 0 0 0 0 0 0 
0 0 0 0 0 0 0 0 0 
0 0 0 0 0 0 0 0 0 
0 0 0 0 0 0 0 0 0 
0 0 0 0 0 0 0 0 0 
0 0 0 0 0 0 0 0 0 
0 0 0 0 0 0 0 0 0 
0 0 0 0 0 0 0 0 0 
0 0 0 0 0 0 0 0 0 
0 0 0 0 0 0 0 0 0 
0 0 0 0 0 0 0 0 0 
0 0 0 0 0 0 0 0 0 
0 0 0 0 0 0 0 0 0 
0 0 0 0 0 0 0 0 0 
0 0 0 0 0 0 0 0 0 
0 0 0 0 0 0 0 0 0 
0 0 0 0 0 0 0 0 0 
0 0 0 0 0 0 0 0 0 
0 0 0 0 0 0 0 0 0 
0 0 0 0 0 0 0 0 0 
0 0 0 0 0 0 0 0 0 
0 0 0 0 0 0 0 0 0 
0 0 0 0 0 0 0 0 0 
0 0 0 0 0 0 0 0 0 
0 0 0 0 0 0 0 0 0 
0 0 0 0 0 0 0 0 0 
0 0 0 0 0 0 0 0 0 
0 0 0 0 0 0 0 0 0 
0 0 0 0 0 0 0 0 0 
0 0 0 0 0 0 0 0 0 
0 0 0 0 0 0 0 0 0 
0 0 0 0 0 0 0 0 0 
0 0 0 0 0 0 0 0 0 
0 0 0 0 0 0 0 0 0 
0 0 0 0 0 0 0 0 0 
0 0 0 0 0 0 0 0 0 
0 0 0 0 0 0 0 0 0 
0 0 0 0 0 0 0 0 0 
0 0 0 0 0 0 0 0 0 
0 0 0 0 0 0 0 0 0 
0 0 0 0 0 0 0 0 0 
0 0 0 0 0 0 0 0 0 
0 0 0 0 0 0 0 0 0 
0 0 0 0 0 0 0 0 0 
0 0 0 0 0 0 0 0 0 
0 0 0 0 0 0 0 0 0 
0 0 0 0 0 0 0 0 0 
0 0 0 0 0 0 0 0 0 
0 0 0 0 0 0 0 0 0 
0 0 0 0 0 0 0 0 0 
0 0 0 0 0 0 0 0 0 
0 0 0 0 0 0 0 0 0 
0 0 0 0 0 0 0 0 0 
0 0 0 0 0 0 0 0 0 
0 0 0 0 0 0 0 0 0 
0 0 0 0 0 0 0 0 0 
0 0 0 0 0 0 0 0 0 
0 0 0 0 0 0 0 0 0 
0 0 0 0 0 0 0 0 0 
0 0 0 0 0 0 0 0 0 
0 0 0 0 0 0 0 0 0 
0 0 0 0 0 0 0 0 0 
0 0 0 0 0 0 0 0 0 
0 0 0 0 0 0 0 0 0 
0 0 0 0 0 0 0 0 0 
0 0 0 0 0 0 0 0 0 
0 0 0 0 0 0 0 0 0 
0 0 0 0 0 0 0 0 0 
0 0 0 0 0 0 0 0 0 
0 0 0 0 0 0 0 0 0 
0 0 0 0 0 0 0 0 0 
0 0 0 0 0 0 0 0 0 
0 0 0 0 0 0 0 0 0 
0 0 0 0 0 0 0 0 0 
0 0 0 0 0 0 0 0 0 
0 0 0 0 0 0 0 0 0 
0 0 0 0 0 0 0 0 0 
0 0 0 0 0 0 0 0 0 
0 0 0 0 0 0 0 0 0 
0 0 0 0 0 0 0 0 0 
0 0 0 0 0 0 0 0 0 
0 0 0 0 0 0 0 0 0 
0 0 0 0 0 0 0 0 0 
0 0 0 0 0 0 0 0 0 
0 0 0 0 0 0 0 0 0 
0 0 0 0 0 0 0 0 0 
0 2 2 1 2 2 2 2 2 
2 2 2 1 1 1 1 2 2 
2 2 2 2 1 1 1 1 1 
2 2 2 2 2 2 2 1 1 
2 2 2 2 1 1 1 1 0 
0 0 0 0 0 0 0 0 0 
0 0 0 0 0 0 0 0 0 
0 0 0 0 0 0 0 0 0 
0 0 0 0 0 0 0 0 0 
0 0 0 0 0 0 0 0 0 
0 0 0 0 0 0 0 0 0 
0 2 2 2 1 1 2 2 2 
2 2 2 2 1 1 1 1 2 
2 2 2 2 2 1 1 1 1 
1 2 2 2 2 2 2 2 1 
1 2 2 2 2 1 1 1 1 
1 0 0 0 0 0 0 0 0 
0 0 0 0 0 0 0 0 0 
0 0 0 0 0 0 0 0 0 
0 0 0 0 0 0 0 0 0 
0 0 0 0 0 0 0 0 0 
0 0 0 0 0 0 0 0 0 
0 2 2 2 2 1 1 2 2 
2 2 2 2 1 1 1 1 1 
2 2 2 2 2 2 1 1 1 
1 1 2 2 2 2 2 2 2 
1 1 2 2 2 2 1 1 1 
1 1 1 0 0 0 0 0 0 
0 0 0 0 0 0 0 0 0 
0 0 0 0 0 0 0 0 0 
0 0 0 0 0 0 0 0 0 
0 0 0 0 0 0 0 0 0 
0 0 0 0 0 0 0 0 0 
0 2 2 2 2 2 1 1 2 
2 2 2 2 1 1 1 1 1 
1 1 2 2 2 2 2 1 1 
1 1 1 1 2 2 2 2 1 
1 1 1 2 2 2 2 1 1 
1 1 1 2 2 0 0 0 0 
0 0 0 0 0 0 0 0 0 
0 0 0 0 0 0 0 0 0 
0 0 0 0 0 0 0 0 0 
0 0 0 0 0 0 0 0 0 
0 0 0 0 0 0 0 0 0 
0 2 2 2 2 2 2 1 1 
1 1 1 1 2 1 1 1 1 
1 1 1 1 2 2 2 2 1 
1 1 1 1 1 1 1 1 1 
1 1 1 1 2 2 2 2 2 
1 1 2 2 2 2 2 0 0 
0 0 0 0 0 0 0 0 0 
0 0 0 0 0 0 0 0 0 
0 0 0 0 0 0 0 0 0 
0 0 0 0 0 0 0 0 0 
0 0 0 0 0 0 0 0 0 
0 1 1 1 2 2 2 2 1 
1 1 1 1 2 2 2 2 1 
1 2 2 2 2 1 1 1 1 
1 2 2 2 2 2 2 2 2 
1 1 1 1 1 2 2 2 2 
2 1 2 2 2 2 2 2 2 
0 0 0 0 0 0 0 0 0 
0 0 0 0 0 0 0 0 0 
0 0 0 0 0 0 0 0 0 
0 0 0 0 0 0 0 0 0 
0 0 0 0 0 0 0 0 0 
0 1 1 1 1 2 2 2 2 
1 1 1 1 1 2 2 2 2 
2 2 2 2 2 2 1 1 1 
1 1 2 2 2 2 2 2 2 
2 1 1 1 1 1 1 1 1 
1 1 1 2 2 2 2 2 2 
1 1 0 0 0 0 0 0 0 
0 0 0 0 0 0 0 0 0 
0 0 0 0 0 0 0 0 0 
0 0 0 0 0 0 0 0 0 
0 0 0 0 0 0 0 0 0 
0 1 1 1 1 1 1 1 1 
1 1 1 1 1 1 2 2 2 
2 1 2 2 2 2 2 1 1 
1 1 1 1 2 2 2 2 2 
2 2 1 2 2 2 2 1 1 
1 1 1 1 1 2 2 1 1 
1 1 1 1 0 0 0 0 0 
0 0 0 0 0 0 0 0 0 
0 0 0 0 0 0 0 0 0 
0 0 0 0 0 0 0 0 0 
0 0 0 0 0 0 0 0 0 
0 1 1 1 1 1 2 2 1 
1 1 2 2 1 1 1 2 2 
2 2 1 2 2 2 2 2 1 
1 1 1 1 1 1 1 1 1 
1 1 1 1 2 2 2 2 2 
1 1 1 1 1 1 2 1 1 
1 1 1 1 1 1 0 0 0 
0 0 0 0 0 0 0 0 0 
0 0 0 0 0 0 0 0 0 
0 0 0 0 0 0 0 0 0 
0 0 0 0 0 0 0 0 0 
0 2 1 1 1 1 2 2 2 
1 1 1 2 2 2 1 1 2 
2 2 1 1 1 2 2 2 2 
1 1 1 1 2 2 2 2 2 
1 1 1 1 1 2 2 2 2 
2 2 1 1 1 1 1 1 1 
1 1 1 1 1 1 1 1 0 
0 0 0 0 0 0 0 0 0 
0 0 0 0 0 0 0 0 0 
0 0 0 0 0 0 0 0 0 
0 0 0 0 0 0 0 0 0 
0 2 2 2 1 1 2 2 2 
2 1 1 1 2 2 2 2 2 
1 1 1 1 1 1 1 1 1 
1 1 1 1 2 2 2 2 2 
2 1 1 1 1 1 2 2 2 
2 2 2 2 1 1 1 2 2 
2 2 2 2 2 1 1 1 1 
1 0 0 0 0 0 0 0 0 
0 0 0 0 0 0 0 0 0 
0 0 0 0 0 0 0 0 0 
0 0 0 0 0 0 0 0 0 
0 2 2 2 2 1 2 2 2 
2 2 1 1 1 2 2 2 2 
2 1 1 1 1 1 1 1 2 
2 2 2 2 2 2 2 2 2 
2 2 1 1 1 1 1 2 2 
2 2 2 2 2 1 1 1 2 
2 2 2 2 2 2 1 1 1 
1 1 2 0 0 0 0 0 0 
0 0 0 0 0 0 0 0 0 
0 0 0 0 0 0 0 0 0 
0 0 0 0 0 0 0 0 0 
0 2 2 2 2 2 1 2 2 
2 2 2 1 1 1 2 2 2 
2 2 1 1 1 1 1 1 2 
2 2 2 2 2 1 2 2 2 
2 2 2 1 1 1 1 1 1 
1 1 1 1 1 1 1 1 1 
1 2 2 2 2 2 2 1 1 
1 1 2 2 2 0 0 0 0 
0 0 0 0 0 0 0 0 0 
0 0 0 0 0 0 0 0 0 
0 0 0 0 0 0 0 0 0 
0 1 2 2 2 2 2 1 2 
2 2 2 2 1 1 1 2 2 
2 2 2 1 1 1 1 1 1 
2 2 2 2 2 2 1 1 1 
1 1 1 1 2 2 2 2 2 
1 1 1 1 2 2 1 1 1 
1 1 1 1 2 2 2 2 1 
1 2 2 2 2 2 2 0 0 
0 0 0 0 0 0 0 0 0 
0 0 0 0 0 0 0 0 0 
0 0 0 0 0 0 0 0 0 
0 1 1 2 2 2 2 2 1 
1 2 2 2 2 1 1 1 2 
1 1 1 1 1 2 2 2 2 
2 2 2 2 2 2 2 1 1 
1 1 1 1 1 2 2 2 2 
2 1 1 1 2 2 2 2 1 
1 1 1 1 1 2 2 2 2 
1 2 2 2 2 2 2 2 2 
0 0 0 0 0 0 0 0 0 
0 0 0 0 0 0 0 0 0 
0 0 0 0 0 0 0 0 0 
0 1 1 1 1 2 2 2 1 
1 1 1 1 1 1 1 1 1 
1 1 1 1 1 1 2 2 2 
2 2 1 2 2 2 2 2 1 
1 1 1 1 1 1 2 2 2 
2 1 1 1 1 2 2 2 2 
2 1 1 1 1 1 1 1 1 
1 1 2 2 2 2 2 2 1 
2 2 0 0 0 0 0 0 0 
0 0 0 0 0 0 0 0 0 
0 0 0 0 0 0 0 0 0 
0 1 1 1 1 1 1 2 2 
1 1 1 1 1 1 2 2 2 
2 1 1 1 1 1 1 2 2 
2 2 2 1 1 1 1 1 1 
2 2 2 2 1 1 1 2 2 
2 2 1 1 1 1 2 2 2 
2 2 1 2 2 2 2 2 1 
1 1 1 1 1 1 1 1 1 
1 2 2 2 0 0 0 0 0 
0 0 0 0 0 0 0 0 0 
0 0 0 0 0 0 0 0 0 
0 0 1 1 1 1 1 1 1 
1 1 1 1 1 1 1 2 2 
2 2 1 1 1 1 1 2 2 
2 2 2 2 1 1 1 1 1 
1 2 2 2 2 2 2 1 2 
2 2 2 1 1 1 1 2 2 
2 2 2 1 2 2 2 2 2 
1 1 1 1 1 1 2 2 1 
1 1 2 2 2 0 0 0 0 
0 0 0 0 0 0 0 0 0 
0 0 0 0 0 0 0 0 0 
0 0 0 1 1 1 1 1 2 
2 2 2 2 1 1 1 1 2 
2 2 2 2 1 1 1 2 2 
2 2 2 2 2 1 1 1 1 
1 1 2 2 2 2 2 2 1 
2 2 2 1 1 1 1 1 2 
2 2 1 1 1 2 2 2 2 
2 1 1 1 1 1 2 2 2 
2 1 1 2 2 2 0 0 0 
0 0 0 0 0 0 0 0 0 
0 0 0 0 0 0 0 0 0 
0 0 0 0 1 1 1 1 2 
2 2 2 2 2 1 1 1 1 
2 2 2 2 2 1 1 1 1 
1 1 1 1 1 1 1 1 1 
1 1 1 2 2 2 2 2 2 
1 1 1 1 2 2 2 2 2 
1 1 1 1 1 1 2 2 2 
2 2 1 1 1 1 2 2 2 
2 2 1 1 2 2 2 0 0 
0 0 0 0 0 0 0 0 0 
0 0 0 0 0 0 0 0 0 
0 0 0 0 0 1 1 1 1 
2 2 2 2 2 1 1 1 1 
1 2 2 2 2 2 1 1 1 
1 1 1 1 1 1 1 2 2 
2 2 1 1 1 1 1 1 1 
1 1 1 1 1 2 2 2 2 
2 1 1 1 1 1 1 2 2 
2 1 1 2 2 2 1 2 2 
2 2 2 1 1 2 2 2 0 
0 0 0 0 0 0 0 0 0 
0 0 0 0 0 0 0 0 0 
0 0 0 0 0 0 1 1 1 
1 1 2 2 2 2 1 1 1 
1 1 2 2 2 2 2 1 1 
1 1 1 1 1 1 1 1 2 
2 2 2 1 2 2 2 2 2 
2 1 1 1 1 1 2 2 2 
2 2 2 1 1 1 1 1 2 
2 1 1 1 2 2 2 1 2 
2 2 2 2 1 1 2 2 2 
0 0 0 0 0 0 0 0 0 
0 0 0 0 0 0 0 0 0 
0 0 0 0 0 0 0 1 1 
1 1 1 2 2 2 2 1 1 
1 1 1 1 1 1 2 2 1 
1 1 1 1 1 1 1 1 1 
2 2 2 2 1 2 2 2 2 
2 2 1 1 1 1 1 2 2 
2 2 2 2 1 1 1 1 1 
1 1 1 1 1 2 2 2 1 
2 2 2 2 2 1 1 1 1 
1 0 0 0 0 0 0 0 0 
0 0 0 0 0 0 0 0 0 
0 0 0 0 0 0 0 0 1 
1 1 1 1 2 2 2 2 1 
1 1 1 1 1 1 1 1 1 
1 1 1 1 1 1 1 1 1 
2 2 2 2 2 1 2 2 2 
2 2 2 1 1 1 1 1 2 
2 2 2 2 2 1 2 2 2 
2 1 1 1 1 1 2 2 2 
1 1 1 1 1 1 1 1 1 
1 1 0 0 0 0 0 0 0 
0 0 0 0 0 0 0 0 0 
0 0 0 0 0 0 0 0 0 
1 1 1 1 1 2 2 2 2 
1 1 1 1 1 1 1 1 1 
1 2 2 2 2 2 2 2 2 
1 2 2 2 2 2 1 1 2 
2 2 2 2 1 1 1 1 1 
1 1 1 1 1 1 1 2 2 
2 2 1 1 1 1 2 2 2 
2 1 1 1 1 1 2 2 2 
2 2 2 0 0 0 0 0 0 
0 0 0 0 0 0 0 0 0 
0 0 0 0 0 0 0 0 0 
0 2 2 2 2 1 1 1 1 
1 2 2 2 2 1 1 1 1 
1 1 2 2 2 2 2 2 2 
2 1 1 1 1 2 2 1 1 
1 1 1 1 1 2 2 2 2 
2 1 1 1 1 1 1 1 2 
2 2 2 2 1 1 1 2 2 
2 2 1 1 1 1 1 2 2 
2 2 2 2 0 0 0 0 0 
0 0 0 0 0 0 0 0 0 
0 0 0 0 0 0 0 0 0 
0 0 2 2 2 2 1 1 1 
1 1 2 2 2 2 1 1 1 
1 1 1 2 2 2 2 2 2 
2 2 1 1 1 1 1 2 1 
1 1 1 1 2 2 2 2 2 
2 2 2 1 1 1 1 1 1 
1 2 2 2 2 2 1 2 2 
2 2 2 1 1 1 1 1 2 
2 2 2 2 2 0 0 0 0 
0 0 0 0 0 0 0 0 0 
0 0 0 0 0 0 0 0 0 
0 0 0 2 2 2 2 1 1 
1 1 1 2 2 2 2 2 1 
1 1 1 1 1 1 1 1 1 
2 2 2 1 1 1 1 1 1 
1 1 1 1 1 2 2 2 2 
2 2 2 2 1 1 1 1 1 
1 1 2 2 2 2 2 1 1 
1 1 1 1 1 1 1 1 1 
2 2 2 2 2 2 0 0 0 
0 0 0 0 0 0 0 0 0 
0 0 0 0 0 0 0 0 0 
0 0 0 0 2 2 2 2 1 
1 1 1 1 2 2 2 2 2 
2 2 2 2 1 1 1 1 1 
1 2 2 2 1 1 1 1 1 
1 1 1 1 1 1 2 2 2 
1 1 1 1 1 1 2 2 2 
2 2 1 1 1 2 2 2 1 
1 1 1 1 1 2 2 2 2 
1 1 1 1 1 1 2 0 0 
0 0 0 0 0 0 0 0 0 
0 0 0 0 0 0 0 0 0 
0 0 0 0 0 2 2 2 2 
1 1 1 1 1 2 2 2 2 
2 2 2 2 2 1 1 1 1 
1 1 1 1 1 1 1 1 1 
1 2 2 2 2 2 1 2 2 
2 1 1 1 1 1 1 2 2 
2 2 2 1 1 1 1 1 1 
1 1 1 1 1 2 2 2 2 
2 1 1 1 1 1 1 1 0 
0 0 0 0 0 0 0 0 0 
0 0 0 0 0 0 0 0 0 
0 0 0 0 0 0 2 2 2 
2 1 1 2 2 2 1 1 1 
1 1 1 1 1 1 1 1 1 
1 1 1 1 1 1 1 1 2 
2 2 2 2 2 2 2 1 1 
1 1 1 1 1 1 1 1 2 
2 2 2 2 1 1 1 1 2 
2 1 1 1 1 2 2 2 2 
2 2 1 1 1 1 2 2 2 
0 0 0 0 0 0 0 0 0 
0 0 0 0 0 0 0 0 0 
0 0 0 0 0 0 0 2 2 
2 2 1 2 2 2 2 1 1 
1 1 1 1 1 1 1 1 1 
1 1 1 1 1 1 1 1 1 
2 2 2 2 2 2 2 2 1 
1 1 1 1 1 1 1 1 1 
2 2 2 2 2 1 1 1 1 
2 2 2 1 1 1 2 2 2 
2 2 2 1 1 1 2 2 2 
2 0 0 0 0 0 0 0 0 
0 0 0 0 0 0 0 0 0 
0 0 0 0 0 0 0 0 2 
1 1 1 1 2 2 2 2 1 
1 1 1 1 1 1 1 1 1 
1 2 2 2 1 1 1 1 1 
1 2 2 2 2 1 1 1 1 
1 1 1 1 2 2 2 2 2 
1 2 2 2 2 2 1 1 1 
2 2 2 2 2 2 1 2 2 
2 2 2 2 1 1 1 2 2 
2 2 0 0 0 0 0 0 0 
0 0 0 0 0 0 0 0 0 
0 0 0 0 0 0 0 0 0 
2 2 1 1 1 1 2 2 2 
2 1 1 1 1 1 1 1 1 
1 1 2 2 2 2 1 1 1 
1 1 2 2 2 1 1 1 1 
1 1 1 1 1 2 2 2 2 
2 1 1 1 1 2 2 1 1 
1 2 2 2 2 2 2 1 1 
1 1 1 1 1 1 1 1 2 
2 2 2 0 0 0 0 0 0 
0 0 0 0 0 0 0 0 0 
0 0 0 0 0 0 0 0 0 
0 2 2 2 1 1 1 2 2 
2 2 1 1 1 2 2 1 1 
1 1 1 2 2 2 2 2 2 
2 1 1 1 1 1 1 1 1 
1 1 1 1 1 1 2 2 2 
2 2 1 1 1 1 1 2 1 
1 1 2 2 2 2 2 1 1 
1 1 1 1 2 2 2 2 1 
2 2 2 2 0 0 0 0 0 
0 0 0 0 0 0 0 0 0 
0 0 0 0 0 0 0 0 0 
0 0 2 2 2 1 1 1 2 
2 2 2 1 1 2 2 2 2 
2 2 1 1 1 2 2 2 2 
2 2 1 1 1 1 1 1 1 
1 1 1 1 1 1 1 2 2 
2 2 2 1 1 1 1 1 1 
1 1 1 2 2 2 2 2 1 
1 1 1 1 1 2 2 2 2 
1 2 2 2 2 0 0 0 0 
0 0 0 0 0 0 0 0 0 
0 0 0 0 0 0 0 0 0 
0 0 0 2 2 2 1 1 1 
2 2 2 2 1 2 2 2 2 
2 2 2 1 1 1 1 1 1 
2 2 2 1 1 1 1 1 1 
1 1 1 1 1 1 1 1 2 
2 2 2 2 1 1 1 1 1 
2 2 2 1 1 1 1 1 1 
1 1 1 1 1 2 2 2 2 
2 1 1 1 1 1 0 0 0 
0 0 0 0 0 0 0 0 0 
0 0 0 0 0 0 0 0 0 
0 0 0 0 2 2 2 1 1 
1 2 1 1 1 1 2 2 2 
2 2 2 2 1 1 1 1 1 
1 2 2 2 1 1 1 1 1 
1 2 2 2 2 2 2 2 1 
1 1 1 2 2 1 1 1 1 
2 2 2 1 1 1 1 1 1 
2 2 2 2 1 1 2 2 2 
2 2 1 1 1 1 1 0 0 
0 0 0 0 0 0 0 0 0 
0 0 0 0 0 0 0 0 0 
0 0 0 0 0 2 2 2 1 
2 2 2 2 1 1 1 1 2 
2 2 2 2 2 1 1 1 1 
1 1 1 1 1 1 1 1 1 
1 2 2 2 2 2 2 2 2 
1 1 1 1 1 1 1 2 2 
2 2 2 2 1 1 1 1 1 
1 2 2 2 2 2 1 2 2 
2 2 2 1 1 1 1 1 0 
0 0 0 0 0 0 0 0 0 
0 0 0 0 0 0 0 0 0 
0 0 0 0 0 0 2 2 1 
1 2 2 2 2 1 1 1 1 
1 1 1 1 1 1 1 1 1 
1 1 2 1 1 1 1 1 1 
1 1 2 2 2 2 2 2 2 
2 1 1 1 1 1 1 1 2 
2 2 2 2 2 1 1 1 1 
1 1 2 2 2 2 2 1 1 
1 2 2 2 1 1 1 1 1 
0 0 0 0 0 0 0 0 0 
0 0 0 0 0 0 0 0 0 
0 0 0 0 0 0 0 2 2 
1 1 2 2 2 2 1 1 1 
2 2 2 1 1 1 1 1 2 
2 2 2 2 1 1 1 1 1 
1 1 1 1 1 2 2 2 2 
2 2 1 1 1 1 1 1 1 
2 2 2 2 2 2 1 1 1 
1 1 1 2 2 2 2 2 1 
1 1 1 1 1 1 1 1 1 
1 0 0 0 0 0 0 0 0 
0 0 0 0 0 0 0 0 0 
0 0 0 0 0 0 0 0 2 
2 2 1 2 2 2 2 1 1 
1 2 2 2 2 1 1 1 1 
2 2 2 2 2 1 1 1 1 
1 1 1 1 1 1 1 1 1 
1 1 1 1 1 1 1 1 1 
1 1 1 1 1 1 1 2 2 
2 2 2 1 2 2 2 2 2 
1 1 1 1 1 2 2 2 2 
2 2 0 0 0 0 0 0 0 
0 0 0 0 0 0 0 0 0 
0 0 0 0 0 0 0 0 0 
2 2 2 1 2 2 2 2 1 
1 1 2 2 2 2 1 1 1 
1 2 2 2 2 2 1 1 1 
1 1 1 1 1 1 1 1 1 
1 1 1 1 1 2 2 2 2 
2 2 1 1 1 1 1 1 2 
2 2 2 2 1 1 2 2 2 
2 1 1 1 1 1 2 2 2 
2 2 2 0 0 0 0 0 0 
0 0 0 0 0 0 0 0 0 
0 0 0 0 0 0 0 0 0 
0 2 2 2 2 2 2 2 1 
1 1 1 2 2 2 2 2 1 
1 1 2 2 2 2 2 1 1 
1 2 2 1 1 1 1 2 2 
1 1 1 1 1 1 2 2 2 
2 2 2 2 1 1 1 1 1 
2 2 2 2 2 1 1 1 1 
1 1 1 1 1 1 1 2 2 
2 2 2 2 0 0 0 0 0 
0 0 0 0 0 0 0 0 0 
0 0 0 0 0 0 0 0 0 
0 0 2 2 2 2 1 1 1 
2 2 2 1 2 2 2 2 2 
1 1 1 2 2 2 2 2 1 
1 2 2 2 2 2 1 1 2 
2 2 1 1 1 1 1 2 2 
2 2 2 2 2 1 1 1 1 
1 2 2 2 2 2 1 1 1 
1 1 1 2 2 2 2 2 1 
2 2 2 2 2 0 0 0 0 
0 0 0 0 0 0 0 0 0 
0 0 0 0 0 0 0 0 0 
0 0 0 2 2 2 2 1 1 
1 2 2 2 2 2 2 2 2 
2 1 1 1 1 1 1 1 1 
1 1 2 2 2 2 1 1 1 
1 2 2 2 2 2 2 1 1 
1 1 1 2 2 2 1 1 1 
1 1 2 2 2 2 2 1 1 
1 1 1 1 2 2 2 2 2 
1 1 1 2 2 2 0 0 0 
0 0 0 0 0 0 0 0 0 
0 0 0 0 0 0 0 0 0 
0 0 0 0 2 1 1 1 1 
1 1 2 2 2 2 1 1 1 
1 1 2 2 2 2 2 2 1 
1 1 1 2 2 2 2 1 1 
1 1 2 2 2 2 2 2 1 
1 1 1 1 2 2 2 1 2 
2 2 1 1 1 1 1 1 1 
1 1 1 1 1 2 2 2 2 
2 1 1 1 1 1 1 0 0 
0 0 0 0 0 0 0 0 0 
0 0 0 0 0 0 0 0 0 
0 0 0 0 0 2 1 1 1 
1 1 1 2 2 2 2 1 1 
1 1 1 2 2 2 2 2 2 
1 1 1 1 2 2 2 2 1 
1 1 1 2 2 2 2 2 1 
1 1 1 1 1 1 1 1 1 
2 2 2 2 1 1 1 1 2 
2 2 2 2 1 1 2 2 2 
2 2 1 1 1 1 1 1 0 
0 0 0 0 0 0 0 0 0 
0 0 0 0 0 0 0 0 0 
0 0 0 0 0 0 2 2 2 
1 1 1 1 2 2 2 2 1 
1 1 1 1 1 2 2 2 2 
2 1 1 1 1 2 2 2 2 
1 1 1 1 1 2 2 2 2 
1 1 1 1 1 2 1 1 1 
1 2 2 2 2 1 1 1 1 
2 2 2 2 2 2 1 2 2 
2 2 2 1 1 1 1 1 1 
0 0 0 0 0 0 0 0 0 
0 0 0 0 0 0 0 0 0 
0 0 0 0 0 0 0 2 2 
2 1 1 1 1 1 2 2 2 
1 1 1 1 1 1 2 2 2 
2 2 1 1 1 1 2 2 2 
2 1 1 1 1 1 1 1 1 
1 1 1 1 2 2 2 1 1 
1 1 2 2 2 2 1 1 1 
1 2 2 2 2 2 2 1 1 
1 1 1 1 1 1 1 1 1 
1 0 0 0 0 0 0 0 0 
0 0 0 0 0 0 0 0 0 
0 0 0 0 0 0 0 0 2 
2 2 1 2 2 2 2 2 1 
1 2 2 2 2 1 1 1 1 
2 2 2 1 1 1 1 1 1 
1 1 1 2 2 2 2 1 1 
1 1 2 2 2 2 2 2 1 
1 1 1 2 2 2 2 1 1 
1 1 2 2 2 2 2 2 1 
1 1 1 1 1 2 2 2 1 
1 1 0 0 0 0 0 0 0 
0 0 0 0 0 0 0 0 0 
0 0 0 0 0 0 0 0 0 
2 2 2 1 2 2 2 2 2 
1 1 2 2 2 2 1 2 2 
2 2 1 1 1 2 2 2 1 
1 1 1 1 2 2 2 2 1 
1 1 1 2 2 2 2 2 2 
1 1 1 1 2 2 2 2 1 
1 1 1 2 2 2 2 2 2 
1 1 1 1 1 1 2 2 2 
1 1 1 0 0 0 0 0 0 
0 0 0 0 0 0 0 0 0 
0 0 0 0 0 0 0 0 0 
0 2 2 2 2 2 2 2 2 
2 1 1 2 2 2 2 1 2 
2 2 2 1 1 1 2 2 2 
1 1 1 1 1 2 2 2 2 
1 1 1 1 1 2 2 2 2 
2 1 1 1 1 2 2 2 2 
1 1 1 1 1 1 1 1 1 
1 1 1 1 1 1 2 2 2 
2 1 1 1 0 0 0 0 0 
0 0 0 0 0 0 0 0 0 
0 0 0 0 0 0 0 0 0 
0 0 2 2 2 2 2 2 2 
2 2 1 1 2 2 2 2 1 
2 2 2 2 1 1 1 2 2 
2 2 1 1 1 1 2 2 2 
2 1 1 1 1 1 2 2 2 
2 2 1 1 1 1 1 1 1 
1 1 2 2 2 2 1 1 1 
1 1 1 1 1 1 1 2 2 
2 2 1 1 1 0 0 0 0 
0 0 0 0 0 0 0 0 0 
0 0 0 0 0 0 0 0 0 
0 0 0 2 1 1 1 1 1 
1 1 1 1 1 2 2 2 2 
2 2 2 2 2 1 1 1 2 
2 2 2 1 1 1 1 2 2 
2 2 1 1 1 1 1 1 1 
1 1 1 2 2 2 2 2 1 
1 1 1 2 2 2 2 1 1 
1 1 2 2 2 1 1 2 2 
2 2 2 1 1 1 0 0 0 
0 0 0 0 0 0 0 0 0 
0 0 0 0 0 0 0 0 0 
0 0 0 0 2 1 1 1 1 
1 1 2 2 2 2 2 1 1 
1 1 1 1 1 1 1 1 1 
2 2 2 2 2 1 1 2 2 
2 2 2 1 2 2 2 2 2 
1 1 1 1 2 2 2 2 2 
1 1 1 1 2 2 2 2 1 
1 1 1 2 2 2 1 1 2 
2 2 2 2 1 1 1 0 0 
0 0 0 0 0 0 0 0 0 
0 0 0 0 0 0 0 0 0 
0 0 0 0 0 2 2 2 2 
1 1 1 2 2 2 2 2 1 
2 2 2 2 1 1 1 1 2 
2 1 1 2 2 2 2 1 1 
1 1 1 1 2 2 2 2 2 
2 1 1 1 1 2 2 2 2 
2 1 1 1 1 2 2 2 2 
2 1 1 2 2 2 2 1 1 
1 2 2 2 2 1 1 1 0 
0 0 0 0 0 0 0 0 0 
0 0 0 0 0 0 0 0 0 
0 0 0 0 0 0 2 2 2 
2 2 2 2 2 2 2 2 2 
2 2 2 2 2 2 2 2 2 
2 2 1 1 1 1 2 2 1 
1 1 1 1 1 2 2 2 2 
2 2 1 1 1 1 2 2 2 
2 2 1 1 1 1 2 2 2 
2 2 1 2 2 2 2 2 1 
1 1 1 2 2 2 1 1 1 
0 0 0 0 0 0 0 0 0 
0 0 0 0 0 0 0 0 0 
0 0 0 0 0 0 0 2 2 
2 2 2 1 2 2 2 2 2 
1 2 2 2 2 2 2 2 2 
2 2 2 1 1 1 1 1 1 
1 1 1 1 1 1 2 2 2 
2 2 2 1 1 1 1 1 2 
2 2 2 1 1 1 1 2 2 
2 2 2 1 2 2 2 2 2 
1 1 1 1 1 1 1 1 1 
1 0 0 0 0 0 0 0 0 
0 0 0 0 0 0 0 0 0 
0 0 0 0 0 0 0 0 0 
2 2 2 2 1 1 1 1 1 
1 1 2 2 2 2 2 2 2 
2 2 2 2 1 1 1 1 1 
2 1 1 1 1 1 1 2 2 
2 2 2 2 1 1 1 1 1 
2 2 2 2 1 1 1 1 1 
1 1 1 1 1 2 2 2 2 
2 1 1 1 1 1 1 1 1 
1 1 0 0 0 0 0 0 0 
0 0 0 0 0 0 0 0 0 
0 0 0 0 0 0 0 0 0 
0 0 2 2 2 1 1 1 1 
1 1 1 2 1 1 1 1 1 
1 2 2 2 2 1 1 1 1 
1 2 2 2 1 1 1 1 1 
1 1 1 1 1 2 2 2 1 
1 1 1 1 1 2 2 2 2 
2 1 1 1 1 1 2 2 2 
2 2 1 1 1 1 1 1 1 
1 1 0 0 0 0 0 0 0 
0 0 0 0 0 0 0 0 0 
0 0 0 0 0 0 0 0 0 
0 0 0 0 2 2 2 2 2 
2 1 1 2 2 2 2 1 1 
1 1 1 2 1 1 1 1 1 
1 1 2 2 2 2 2 2 2 
1 1 1 1 1 1 2 2 2 
2 2 1 1 1 1 2 2 2 
2 2 1 1 1 1 1 1 1 
1 1 1 1 1 1 1 1 1 
1 1 0 0 0 0 0 0 0 
0 0 0 0 0 0 0 0 0 
0 0 0 0 0 0 0 0 0 
0 0 0 0 0 0 2 2 2 
2 2 1 1 2 2 2 2 1 
1 1 1 1 2 2 2 2 2 
2 2 1 2 2 2 2 2 2 
2 1 1 1 1 1 1 2 2 
2 2 2 1 1 1 1 2 2 
2 2 2 1 1 1 1 2 2 
1 1 1 1 2 2 2 2 1 
1 1 0 0 0 0 0 0 0 
0 0 0 0 0 0 0 0 0 
0 0 0 0 0 0 0 0 0 
0 0 0 0 0 0 0 0 2 
2 2 2 1 1 2 2 2 2 
1 1 1 1 1 2 2 2 2 
2 2 2 1 1 2 2 2 2 
2 2 1 1 1 1 1 1 2 
2 2 2 2 1 1 1 1 2 
2 2 2 2 1 1 2 2 2 
2 1 1 1 1 2 2 2 2 
1 1 0 0 0 0 0 0 0 
0 0 0 0 0 0 0 0 0 
0 0 0 0 0 0 0 0 0 
0 0 0 0 0 0 0 0 0 
0 2 2 2 1 1 2 2 2 
2 1 1 1 1 1 2 2 2 
2 2 2 2 1 1 1 2 2 
2 2 2 1 1 1 1 1 1 
2 2 2 2 2 1 1 1 1 
2 2 2 2 2 1 2 2 2 
2 2 2 1 1 1 2 2 2 
2 1 0 0 0 0 0 0 0 
0 0 0 0 0 0 0 0 0 
0 0 0 0 0 0 0 0 0 
0 0 0 0 0 0 0 0 0 
0 0 0 2 2 1 1 2 2 
2 2 1 1 2 2 2 1 1 
1 2 2 2 2 1 1 1 1 
1 1 1 1 1 2 2 2 2 
1 2 2 2 2 2 1 1 1 
1 2 1 1 1 1 1 2 2 
2 2 2 2 1 1 1 2 2 
2 2 0 0 0 0 0 0 0 
0 0 0 0 0 0 0 0 0 
0 0 0 0 0 0 0 0 0 
0 0 0 0 0 0 0 0 0 
0 0 0 0 0 2 1 1 2 
2 1 1 1 1 2 2 2 1 
1 1 1 1 2 1 1 1 1 
1 1 1 1 1 1 2 2 2 
2 1 1 1 1 1 1 1 1 
1 1 1 1 1 1 1 1 1 
2 2 2 2 2 1 1 2 2 
2 2 0 0 0 0 0 0 0 
0 0 0 0 0 0 0 0 0 
0 0 0 0 0 0 0 0 0 
0 0 0 0 0 0 0 0 0 
0 0 0 0 0 0 0 1 1 
2 2 2 2 2 2 2 2 2 
1 1 1 1 1 1 1 1 1 
1 1 1 1 1 1 1 2 2 
2 2 1 1 1 1 1 1 2 
2 2 2 1 1 1 1 1 1 
1 1 2 2 2 2 1 2 2 
2 2 0 0 0 0 0 0 0 
0 0 0 0 0 0 0 0 0 
0 0 0 0 0 0 0 0 0 
0 0 0 0 0 0 0 0 0 
0 0 0 0 0 0 0 0 0 
2 2 2 2 2 2 1 2 2 
2 2 1 1 1 1 1 1 1 
1 1 1 1 1 1 1 2 2 
2 2 2 2 1 1 1 1 1 
2 2 2 2 1 1 1 1 1 
1 1 1 1 1 1 1 1 2 
2 2 0 0 0 0 0 0 0 
0 0 0 0 0 0 0 0 0 
0 0 0 0 0 0 0 0 0 
0 0 0 0 0 0 0 0 0 
0 0 0 0 0 0 0 0 0 
0 0 2 2 2 2 2 1 2 
2 2 2 1 1 1 1 2 2 
2 1 1 1 1 1 1 1 2 
2 2 2 2 2 1 1 1 1 
1 2 2 2 2 1 1 1 2 
2 2 2 2 1 1 1 1 1 
1 2 0 0 0 0 0 0 0 
0 0 0 0 0 0 0 0 0 
0 0 0 0 0 0 0 0 0 
0 0 0 0 0 0 0 0 0 
0 0 0 0 0 0 0 0 0 
0 0 0 0 2 2 2 2 1 
1 1 2 2 1 1 1 2 2 
2 2 1 1 1 1 1 1 1 
1 1 2 2 2 2 1 1 1 
1 2 2 2 2 1 1 1 1 
1 2 2 2 2 1 1 1 1 
1 1 0 0 0 0 0 0 0 
0 0 0 0 0 0 0 0 0 
0 0 0 0 0 0 0 0 0 
0 0 0 0 0 0 0 0 0 
0 0 0 0 0 0 0 0 0 
0 0 0 0 0 0 2 2 2 
1 1 1 1 1 1 2 2 2 
2 2 2 1 1 1 1 1 1 
1 1 1 1 2 2 1 1 1 
1 1 2 2 2 2 1 1 1 
1 1 2 2 2 2 1 1 1 
1 1 0 0 0 0 0 0 0 
0 0 0 0 0 0 0 0 0 
0 0 0 0 0 0 0 0 0 
0 0 0 0 0 0 0 0 0 
0 0 0 0 0 0 0 0 0 
0 0 0 0 0 0 0 0 2 
2 1 1 1 1 1 1 2 2 
2 2 2 2 1 1 1 1 1 
1 1 1 1 1 1 1 1 1 
1 1 1 1 2 2 2 1 1 
1 1 1 2 2 2 2 1 1 
1 1 0 0 0 0 0 0 0 
0 0 0 0 0 0 0 0 0 
0 0 0 0 0 0 0 0 0 
0 0 0 0 0 0 0 0 0 
0 0 0 0 0 0 0 0 0 
0 0 0 0 0 0 0 0 0 
0 2 1 1 1 1 1 1 2 
2 2 2 2 2 1 1 1 1 
1 1 1 1 1 1 1 1 1 
1 1 1 1 1 2 2 2 1 
1 1 1 1 2 2 2 2 2 
1 1 0 0 0 0 0 0 0 
0 0 0 0 0 0 0 0 0 
0 0 0 0 0 0 0 0 0 
0 0 0 0 0 0 0 0 0 
0 0 0 0 0 0 0 0 0 
0 0 0 0 0 0 0 0 0 
0 0 0 1 1 1 1 1 1 
2 2 2 2 2 2 1 1 1 
1 1 1 1 1 1 1 1 1 
1 1 1 1 1 1 2 2 2 
1 1 1 1 1 2 2 2 2 
2 2 0 0 0 0 0 0 0 
0 0 0 0 0 0 0 0 0 
0 0 0 0 0 0 0 0 0 
0 0 0 0 0 0 0 0 0 
0 0 0 0 0 0 0 0 0 
0 0 0 0 0 0 0 0 0 
0 0 0 0 0 0 0 0 0 
0 0 0 0 0 0 0 0 0 
0 0 0 0 0 0 0 0 0 
0 0 0 0 0 0 0 0 0 
0 0 0 0 0 0 0 0 0 
0 0 0 0 0 0 0 0 0 
0 0 0 0 0 0 0 0 0 
0 0 0 0 0 0 0 0 0 
0 0 0 0 0 0 0 0 0 
0 0 0 0 0 0 0 0 0 
0 0 0 0 0 0 0 0 0 
0 0 0 0 0 0 0 0 0 
0 0 0 0 0 0 0 0 0 
0 0 0 0 0 0 0 0 0 
0 0 0 0 0 0 0 0 0 
0 0 0 0 0 0 0 0 0 
0 0 0 0 0 0 0 0 0 
0 0 0 0 0 0 0 0 0 
0 0 0 0 0 0 0 0 0 
0 0 0 0 0 0 0 0 0 
0 0 0 0 0 0 0 0 0 
0 0 0 0 0 0 0 0 0 
0 0 0 0 0 0 0 0 0 
0 0 0 0 0 0 0 0 0 
0 0 0 0 0 0 0 0 0 
0 0 0 0 0 0 0 0 0 
0 0 0 0 0 0 0 0 0 
0 0 0 0 0 0 0 0 0 
0 0 0 0 0 0 0 0 0 
0 0 0 0 0 0 0 0 0 
0 0 0 0 0 0 0 0 0 
0 0 0 0 0 0 0 0 0 
0 0 0 0 0 0 0 0 0 
0 0 0 0 0 0 0 0 0 
0 0 0 0 0 0 0 0 0 
0 0 0 0 0 0 0 0 0 
0 0 0 0 0 0 0 0 0 
0 0 0 0 0 0 0 0 0 
0 0 0 0 0 0 0 0 0 
0 0 0 0 0 0 0 0 0 
0 0 0 0 0 0 0 0 0 
0 0 0 0 0 0 0 0 0 
0 0 0 0 0 0 0 0 0 
0 0 0 0 0 0 0 0 0 
0 0 0 0 0 0 0 0 0 
0 0 0 0 0 0 0 0 0 
0 0 0 0 0 0 0 0 0 
0 0 0 0 0 0 0 0 0 
0 0 0 0 0 0 0 0 0 
0 0 0 0 0 0 0 0 0 
0 0 0 0 0 0 0 0 0 
0 0 0 0 0 0 0 0 0 
0 0 0 0 0 0 0 0 0 
0 0 0 0 0 0 0 0 0 
0 0 0 0 0 0 0 0 0 
0 0 0 0 0 0 0 0 0 
0 0 0 0 0 0 0 0 0 
0 0 0 0 0 0 0 0 0 
0 0 0 0 0 0 0 0 0 
0 0 0 0 0 0 0 0 0 
0 0 0 0 0 0 0 0 0 
0 0 0 0 0 0 0 0 0 
0 0 0 0 0 0 0 0 0 
0 0 0 0 0 0 0 0 0 
0 0 0 0 0 0 0 0 0 
0 0 0 0 0 0 0 0 0 
0 0 0 0 0 0 0 0 0 
0 0 0 0 0 0 0 0 0 
0 0 0 0 0 0 0 0 0 
0 0 0 0 0 0 0 0 0 
0 0 0 0 0 0 0 0 0 
0 0 0 0 0 0 0 0 0 
0 0 0 0 0 0 0 0 0 
0 0 0 0 0 0 0 0 0 
0 0 0 0 0 0 0 0 0 
0 0 0 0 0 0 0 0 0 
0 0 0 0 0 0 0 0 0 
0 0 0 0 0 0 0 0 0 
0 0 0 0 0 0 0 0 0 
0 0 0 0 0 0 0 0 0 
0 0 0 0 0 0 0 0 0 
0 0 0 0 0 0 0 0 0 
0 0 0 0 0 0 0 0 0 
0 0 0 0 0 0 0 0 0 
0 0 0 0 0 0 0 0 0 
0 0 0 0 0 0 0 0 0 
0 0 0 0 0 0 0 0 0 
0 0 0 0 0 0 0 0 0 
0 0 0 0 0 0 0 0 0 
0 0 0 0 0 0 0 0 0 
0 0 0 0 0 0 0 0 0 
0 0 0 0 0 0 0 0 0 
0 0 0 0 0 0 0 0 0 
0 0 0 0 0 0 0 0 0 
0 0 0 0 0 0 0 0 0 
0 0 0 0 0 0 0 0 0 
0 0 0 0 0 0 0 0 0 
0 0 0 0 0 0 0 0 0 
0 0 0 0 0 0 0 0 0 
0 0 0 0 0 0 0 0 0 
0 0 0 0 0 0 0 0 0 
0 0 0 0 0 0 0 0 0 
0 0 0 0 0 0 0 0 0 
0 0 0 0 0 0 0 0 0 
0 0 0 0 0 0 0 0 0 
0 0 0 0 0 0 0 0 0 
0 0 0 0 0 0 0 0 0 
0 0 0 0 0 0 0 0 0 
0 
CellId 1 10000 long
0 0 0 0 0 0 0 0 0 
0 0 0 0 0 0 0 0 0 
0 0 0 0 0 0 0 0 0 
0 0 0 0 0 0 0 0 0 
0 0 0 0 0 0 0 0 0 
0 0 0 0 0 0 0 0 0 
0 0 0 0 0 0 0 0 0 
0 0 0 0 0 0 0 0 0 
0 0 0 0 0 0 0 0 0 
0 0 0 0 0 0 0 0 0 
0 0 0 0 0 0 0 0 0 
0 0 0 0 0 0 0 0 0 
0 0 0 0 0 0 0 0 0 
0 0 0 0 0 0 0 0 0 
0 0 0 0 0 0 0 0 0 
0 0 0 0 0 0 0 0 0 
0 0 0 0 0 0 0 0 0 
0 0 0 0 0 0 0 0 0 
0 0 0 0 0 0 0 0 0 
0 0 0 0 0 0 0 0 0 
0 0 0 0 0 0 0 0 0 
0 0 0 0 0 0 0 0 0 
0 0 0 0 0 0 0 0 0 
0 0 0 0 0 0 0 0 0 
0 0 0 0 0 0 0 0 0 
0 0 0 0 0 0 0 0 0 
0 0 0 0 0 0 0 0 0 
0 0 0 0 0 0 0 0 0 
0 0 0 0 0 0 0 0 0 
0 0 0 0 0 0 0 0 0 
0 0 0 0 0 0 0 0 0 
0 0 0 0 0 0 0 0 0 
0 0 0 0 0 0 0 0 0 
0 0 0 0 0 0 0 0 0 
0 0 0 0 0 0 0 0 0 
0 0 0 0 0 0 0 0 0 
0 0 0 0 0 0 0 0 0 
0 0 0 0 0 0 0 0 0 
0 0 0 0 0 0 0 0 0 
0 0 0 0 0 0 0 0 0 
0 0 0 0 0 0 0 0 0 
0 0 0 0 0 0 0 0 0 
0 0 0 0 0 0 0 0 0 
0 0 0 0 0 0 0 0 0 
0 0 0 0 0 0 0 0 0 
0 0 0 0 0 0 0 0 0 
0 0 0 0 0 0 0 0 0 
0 0 0 0 0 0 0 0 0 
0 0 0 0 0 0 0 0 0 
0 0 0 0 0 0 0 0 0 
0 0 0 0 0 0 0 0 0 
0 0 0 0 0 0 0 0 0 
0 0 0 0 0 0 0 0 0 
0 0 0 0 0 0 0 0 0 
0 0 0 0 0 0 0 0 0 
0 0 0 0 0 0 0 0 0 
0 0 0 0 0 0 0 0 0 
0 0 0 0 0 0 0 0 0 
0 0 0 0 0 0 0 0 0 
0 0 0 0 0 0 0 0 0 
0 0 0 0 0 0 0 0 0 
0 0 0 0 0 0 0 0 0 
0 0 0 0 0 0 0 0 0 
0 0 0 0 0 0 0 0 0 
0 0 0 0 0 0 0 0 0 
0 0 0 0 0 0 0 0 0 
0 0 0 0 0 0 0 0 0 
0 0 0 0 0 0 0 0 0 
0 0 0 0 0 0 0 0 0 
0 0 0 0 0 0 0 0 0 
0 0 0 0 0 0 0 0 0 
0 0 0 0 0 0 0 0 0 
0 0 0 0 0 0 0 0 0 
0 0 0 0 0 0 0 0 0 
0 0 0 0 0 0 0 0 0 
0 0 0 0 0 0 0 0 0 
0 0 0 0 0 0 0 0 0 
0 0 0 0 0 0 0 0 0 
0 0 0 0 0 0 0 0 0 
0 0 0 0 0 0 0 0 0 
0 0 0 0 0 0 0 0 0 
0 0 0 0 0 0 0 0 0 
0 0 0 0 0 0 0 0 0 
0 0 0 0 0 0 0 0 0 
0 0 0 0 0 0 0 0 0 
0 0 0 0 0 0 0 0 0 
0 0 0 0 0 0 0 0 0 
0 0 0 0 0 0 0 0 0 
0 0 0 0 0 0 0 0 0 
0 0 0 0 0 0 0 0 0 
0 0 0 0 0 0 0 0 0 
0 0 0 0 0 0 0 0 0 
0 0 0 0 0 0 0 0 0 
0 0 0 0 0 0 0 0 0 
0 0 0 0 0 0 0 0 0 
0 0 0 0 0 0 0 0 0 
0 0 0 0 0 0 0 0 0 
0 0 0 0 0 0 0 0 0 
0 0 0 0 0 0 0 0 0 
0 0 0 0 0 0 0 0 0 
0 0 0 0 0 0 0 0 0 
0 0 0 0 0 0 0 0 0 
0 0 0 0 0 0 0 0 0 
0 0 0 0 0 0 0 0 0 
0 0 0 0 0 0 0 0 0 
0 0 0 0 0 0 0 0 0 
0 0 0 0 0 0 0 0 0 
0 0 0 0 0 0 0 0 0 
0 0 0 0 0 0 0 0 0 
0 0 0 0 0 0 0 0 0 
0 0 0 0 0 0 0 0 0 
0 0 0 0 0 0 0 0 0 
0 0 0 0 0 0 0 0 0 
0 0 0 0 0 0 0 0 0 
0 0 0 0 0 0 0 0 0 
0 0 0 0 0 0 0 0 0 
0 0 0 0 0 0 0 0 0 
0 0 0 0 0 0 0 0 0 
0 0 0 0 0 0 0 0 0 
0 0 0 0 0 0 0 0 0 
0 0 0 0 0 0 0 0 0 
0 0 0 0 0 0 0 0 0 
0 0 0 0 0 0 0 0 0 
0 0 0 0 0 0 0 0 0 
0 0 0 0 0 0 0 0 0 
0 0 0 0 0 0 0 0 0 
0 0 0 0 0 0 0 0 0 
0 0 0 0 0 0 0 0 0 
0 0 0 0 0 0 0 0 0 
0 0 0 0 0 0 0 0 0 
0 0 0 0 0 0 0 0 0 
0 0 0 0 0 0 0 0 0 
0 0 0 0 0 0 0 0 0 
0 0 0 0 0 0 0 0 0 
0 0 0 0 0 0 0 0 0 
0 0 0 0 0 0 0 0 0 
0 0 0 0 0 0 0 0 0 
0 0 0 0 0 0 0 0 0 
0 0 0 0 0 0 0 0 0 
0 0 0 0 0 0 0 0 0 
0 0 0 0 0 0 0 0 0 
0 0 0 0 0 0 0 0 0 
0 0 0 0 0 0 0 0 0 
0 0 0 0 0 0 0 0 0 
0 0 0 0 0 0 0 0 0 
0 0 0 0 0 0 0 0 0 
0 0 0 0 0 0 0 0 0 
0 0 0 0 0 0 0 0 0 
0 0 0 0 0 0 0 0 0 
0 0 0 0 0 0 0 0 0 
0 0 0 0 0 0 0 0 0 
0 0 0 0 0 0 0 0 0 
0 0 0 0 0 0 0 0 0 
0 0 0 0 0 0 0 0 0 
0 0 0 0 0 0 0 0 0 
0 0 0 0 0 0 0 0 0 
0 0 0 0 0 0 0 0 0 
0 0 0 0 0 0 0 0 0 
0 0 0 0 0 0 0 0 0 
0 0 0 0 0 0 0 0 0 
0 0 0 0 0 0 0 0 0 
0 0 0 0 0 0 0 0 0 
0 0 0 0 0 0 0 0 0 
0 0 0 0 0 0 0 0 0 
0 0 0 0 0 0 0 0 0 
0 0 0 0 0 0 0 0 0 
0 0 0 0 0 0 0 0 0 
0 0 0 0 0 0 0 0 0 
0 0 0 0 0 0 0 0 0 
0 0 0 0 0 0 0 0 0 
0 9 9 10 1 1 1 1 1 
1 1 1 2 2 2 2 3 3 
3 3 3 3 5 5 5 5 5 
4 4 4 4 4 4 4 6 6 
15 15 15 15 7 7 7 7 0 
0 0 0 0 0 0 0 0 0 
0 0 0 0 0 0 0 0 0 
0 0 0 0 0 0 0 0 0 
0 0 0 0 0 0 0 0 0 
0 0 0 0 0 0 0 0 0 
0 0 0 0 0 0 0 0 0 
0 9 9 9 10 10 1 1 1 
1 1 1 1 2 2 2 2 3 
3 3 3 3 3 5 5 5 5 
5 4 4 4 4 4 4 4 6 
6 15 15 15 15 7 7 7 7 
7 0 0 0 0 0 0 0 0 
0 0 0 0 0 0 0 0 0 
0 0 0 0 0 0 0 0 0 
0 0 0 0 0 0 0 0 0 
0 0 0 0 0 0 0 0 0 
0 0 0 0 0 0 0 0 0 
0 9 9 9 9 10 10 1 1 
1 1 1 1 2 2 2 2 2 
3 3 3 3 3 3 5 5 5 
5 5 4 4 4 4 4 4 4 
6 6 15 15 15 15 7 7 7 
7 7 7 0 0 0 0 0 0 
0 0 0 0 0 0 0 0 0 
0 0 0 0 0 0 0 0 0 
0 0 0 0 0 0 0 0 0 
0 0 0 0 0 0 0 0 0 
0 0 0 0 0 0 0 0 0 
0 9 9 9 9 9 10 10 1 
1 1 1 1 2 2 2 2 2 
2 2 3 3 3 3 3 5 5 
5 5 5 5 4 4 4 4 6 
6 6 6 15 15 15 15 7 7 
7 7 7 17 17 0 0 0 0 
0 0 0 0 0 0 0 0 0 
0 0 0 0 0 0 0 0 0 
0 0 0 0 0 0 0 0 0 
0 0 0 0 0 0 0 0 0 
0 0 0 0 0 0 0 0 0 
0 9 9 9 9 9 9 10 10 
10 10 10 10 11 2 2 2 2 
2 2 2 2 3 3 3 3 5 
5 5 5 5 5 5 6 6 6 
6 6 6 6 15 15 15 15 15 
7 7 17 17 17 17 17 0 0 
0 0 0 0 0 0 0 0 0 
0 0 0 0 0 0 0 0 0 
0 0 0 0 0 0 0 0 0 
0 0 0 0 0 0 0 0 0 
0 0 0 0 0 0 0 0 0 
0 8 8 8 9 9 9 9 10 
10 10 10 10 11 11 11 11 2 
2 12 12 12 12 24 24 24 24 
24 13 13 13 13 13 13 13 13 
6 6 6 6 6 15 15 15 15 
15 7 17 17 17 17 17 17 17 
0 0 0 0 0 0 0 0 0 
0 0 0 0 0 0 0 0 0 
0 0 0 0 0 0 0 0 0 
0 0 0 0 0 0 0 0 0 
0 0 0 0 0 0 0 0 0 
0 8 8 8 8 9 9 9 9 
10 10 10 10 10 11 11 11 11 
11 12 12 12 12 12 24 24 24 
24 24 13 13 13 13 13 13 13 
13 6 6 6 6 6 16 16 16 
16 16 16 17 17 17 17 17 17 
18 18 0 0 0 0 0 0 0 
0 0 0 0 0 0 0 0 0 
0 0 0 0 0 0 0 0 0 
0 0 0 0 0 0 0 0 0 
0 0 0 0 0 0 0 0 0 
0 8 8 8 8 8 21 21 21 
21 10 10 10 10 10 11 11 11 
11 23 12 12 12 12 12 24 24 
24 24 24 24 13 13 13 13 13 
13 13 14 27 27 27 27 16 16 
16 16 16 16 16 17 17 18 18 
18 18 18 18 0 0 0 0 0 
0 0 0 0 0 0 0 0 0 
0 0 0 0 0 0 0 0 0 
0 0 0 0 0 0 0 0 0 
0 0 0 0 0 0 0 0 0 
0 8 8 8 8 8 20 20 21 
21 21 22 22 10 10 10 11 11 
11 11 23 12 12 12 12 12 24 
24 24 24 24 24 24 14 14 14 
14 14 14 14 27 27 27 27 27 
16 16 16 16 16 16 17 18 18 
18 18 18 18 18 31 0 0 0 
0 0 0 0 0 0 0 0 0 
0 0 0 0 0 0 0 0 0 
0 0 0 0 0 0 0 0 0 
0 0 0 0 0 0 0 0 0 
0 19 8 8 8 8 20 20 20 
21 21 21 22 22 22 10 10 11 
11 11 23 23 23 12 12 12 12 
24 24 24 24 25 25 25 25 25 
14 14 14 14 14 27 27 27 27 
27 27 16 16 16 16 16 18 18 
18 18 18 18 18 31 31 31 0 
0 0 0 0 0 0 0 0 0 
0 0 0 0 0 0 0 0 0 
0 0 0 0 0 0 0 0 0 
0 0 0 0 0 0 0 0 0 
0 19 19 19 8 8 20 20 20 
20 21 21 21 22 22 22 22 22 
23 23 23 23 23 23 23 23 24 
24 24 24 24 25 25 25 25 25 
25 14 14 14 14 14 27 27 27 
27 27 27 27 16 16 16 29 29 
29 29 29 29 29 31 31 31 31 
31 0 0 0 0 0 0 0 0 
0 0 0 0 0 0 0 0 0 
0 0 0 0 0 0 0 0 0 
0 0 0 0 0 0 0 0 0 
0 19 19 19 19 8 20 20 20 
20 20 21 21 21 22 22 22 22 
22 23 23 23 23 23 23 23 37 
37 37 37 37 25 25 25 25 25 
25 25 14 14 14 14 14 27 27 
27 27 27 27 27 28 28 28 29 
29 29 29 29 29 29 31 31 31 
31 31 44 0 0 0 0 0 0 
0 0 0 0 0 0 0 0 0 
0 0 0 0 0 0 0 0 0 
0 0 0 0 0 0 0 0 0 
0 19 19 19 19 19 33 20 20 
20 20 20 21 21 21 22 22 22 
22 22 23 23 23 23 23 23 37 
37 37 37 37 37 39 25 25 25 
25 25 25 14 14 14 14 14 40 
40 40 40 40 28 28 28 28 28 
28 29 29 29 29 29 29 31 31 
31 31 44 44 44 0 0 0 0 
0 0 0 0 0 0 0 0 0 
0 0 0 0 0 0 0 0 0 
0 0 0 0 0 0 0 0 0 
0 32 19 19 19 19 19 33 20 
20 20 20 20 21 21 21 22 22 
22 22 22 23 23 23 23 23 23 
37 37 37 37 37 37 39 39 39 
39 39 39 39 26 26 26 26 26 
40 40 40 40 41 41 28 28 28 
28 28 28 28 29 29 29 29 31 
31 44 44 44 44 44 44 0 0 
0 0 0 0 0 0 0 0 0 
0 0 0 0 0 0 0 0 0 
0 0 0 0 0 0 0 0 0 
0 32 32 19 19 19 19 19 33 
33 20 20 20 20 21 21 21 22 
48 48 48 48 48 35 35 35 35 
35 37 37 37 37 37 37 39 39 
39 39 39 39 39 26 26 26 26 
26 40 40 40 41 41 41 41 28 
28 28 28 28 28 29 29 29 29 
31 44 44 44 44 44 44 44 59 
0 0 0 0 0 0 0 0 0 
0 0 0 0 0 0 0 0 0 
0 0 0 0 0 0 0 0 0 
0 32 32 32 32 19 19 19 33 
33 33 33 33 33 33 21 21 21 
48 48 48 48 48 48 35 35 35 
35 35 36 37 37 37 37 37 39 
39 39 39 39 39 39 26 26 26 
26 40 40 40 40 41 41 41 41 
41 28 28 28 28 28 30 30 30 
30 30 44 44 44 44 44 44 74 
59 59 0 0 0 0 0 0 0 
0 0 0 0 0 0 0 0 0 
0 0 0 0 0 0 0 0 0 
0 32 32 32 32 32 32 19 19 
33 33 33 33 33 33 34 34 34 
34 48 48 48 48 48 48 35 35 
35 35 35 36 36 36 36 36 36 
38 38 38 38 39 39 39 26 26 
26 26 40 40 40 40 41 41 41 
41 41 28 43 43 43 43 43 30 
30 30 30 30 30 30 74 74 74 
74 59 59 59 0 0 0 0 0 
0 0 0 0 0 0 0 0 0 
0 0 0 0 0 0 0 0 0 
0 0 32 32 32 32 32 32 32 
33 33 33 33 33 33 33 34 34 
34 34 48 48 48 48 48 35 35 
35 35 35 35 36 36 36 36 36 
36 38 38 38 38 38 38 39 26 
26 26 26 40 40 40 40 41 41 
41 41 41 55 43 43 43 43 43 
30 30 30 30 30 30 58 58 74 
74 74 59 59 59 0 0 0 0 
0 0 0 0 0 0 0 0 0 
0 0 0 0 0 0 0 0 0 
0 0 0 32 32 32 32 32 46 
46 46 46 46 33 33 33 33 34 
34 34 34 34 48 48 48 35 35 
35 35 35 35 35 36 36 36 36 
36 36 38 38 38 38 38 38 53 
26 26 26 40 40 40 40 40 41 
41 41 55 55 55 43 43 43 43 
43 30 30 30 30 30 58 58 58 
58 74 74 59 59 59 0 0 0 
0 0 0 0 0 0 0 0 0 
0 0 0 0 0 0 0 0 0 
0 0 0 0 45 45 45 45 46 
46 46 46 46 46 47 47 47 47 
34 34 34 34 34 64 64 64 64 
64 49 49 49 49 49 36 36 36 
36 36 36 38 38 38 38 38 38 
53 53 53 53 54 54 54 54 54 
55 55 55 55 55 55 43 43 43 
43 43 30 30 30 30 58 58 58 
58 58 74 74 59 59 59 0 0 
0 0 0 0 0 0 0 0 0 
0 0 0 0 0 0 0 0 0 
0 0 0 0 0 45 45 45 45 
46 46 46 46 46 47 47 47 47 
47 34 34 34 34 34 64 64 64 
64 64 49 49 49 49 49 51 51 
51 51 36 36 36 36 53 53 53 
53 53 53 53 53 54 54 54 54 
54 55 55 55 55 55 55 43 43 
43 56 56 57 57 57 30 58 58 
58 58 58 74 74 59 59 59 0 
0 0 0 0 0 0 0 0 0 
0 0 0 0 0 0 0 0 0 