# vtk DataFile Version 5.1
vtk output
ASCII
DATASET STRUCTURED_POINTS
DIMENSIONS 100 100 1
SPACING 1 1 1
ORIGIN 0 0 0
POINT_DATA 10000
FIELD FieldData 3
CellType 1 10000 char
0 0 0 0 0 0 0 0 0 
0 0 0 0 0 0 0 0 0 
0 0 0 0 0 0 0 0 0 
0 0 0 0 0 0 0 0 0 
0 0 0 0 0 0 0 0 0 
0 0 0 0 0 0 0 0 0 
0 0 0 0 0 0 0 0 0 
0 0 0 0 0 0 0 0 0 
0 0 0 0 0 0 0 0 0 
0 0 0 0 0 0 0 0 0 
0 0 0 0 0 0 0 0 0 
0 0 0 0 0 0 0 0 0 
0 0 0 0 0 0 0 0 0 
0 0 0 0 0 0 0 0 0 
0 0 0 0 0 0 0 0 0 
0 0 0 0 0 0 0 0 0 
0 0 0 0 0 0 0 0 0 
0 0 0 0 0 0 0 0 0 
0 0 0 0 0 0 0 0 0 
0 0 0 0 0 0 0 0 0 
0 0 0 0 0 0 0 0 0 
0 0 0 0 0 0 0 0 0 
0 0 0 0 0 0 0 0 0 
0 0 0 0 0 0 0 0 0 
0 0 0 0 0 0 0 0 0 
0 0 0 0 0 0 0 0 0 
0 0 0 0 0 0 0 0 0 
0 0 0 0 0 0 0 0 0 
0 0 0 0 0 0 0 0 0 
0 0 0 0 0 0 0 0 0 
0 0 0 0 0 0 0 0 0 
0 0 0 0 0 0 0 0 0 
0 0 0 0 0 0 0 0 0 
0 0 0 0 0 0 0 0 0 
0 0 0 0 0 0 0 0 0 
0 0 0 0 0 0 0 0 0 
0 0 0 0 0 0 0 0 0 
0 0 0 0 0 0 0 0 0 
0 0 0 0 0 0 0 0 0 
0 0 0 0 0 0 0 0 0 
0 0 0 0 0 0 0 0 0 
0 0 0 0 0 0 0 0 0 
0 0 0 0 0 0 0 0 0 
0 0 0 0 0 0 0 0 0 
0 0 0 0 0 0 0 0 0 
0 0 0 0 0 0 0 0 0 
0 0 0 0 0 0 0 0 0 
0 0 0 0 0 0 0 0 0 
0 0 0 0 0 0 0 0 0 
0 0 0 0 0 0 0 0 0 
0 0 0 0 0 0 0 0 0 
0 0 0 0 0 0 0 0 0 
0 0 0 0 0 0 0 0 0 
0 0 0 0 0 0 0 0 0 
0 0 0 0 0 0 0 0 0 
0 0 0 0 0 0 0 0 0 
0 0 0 0 0 0 0 0 0 
0 0 0 0 0 0 0 0 0 
0 0 0 0 0 0 0 0 0 
0 0 0 0 0 0 0 0 0 
0 0 0 0 0 0 0 0 0 
0 0 0 0 0 0 0 0 0 
0 0 0 0 0 0 0 0 0 
0 0 0 0 0 0 0 0 0 
0 0 0 0 0 0 0 0 0 
0 0 0 0 0 0 0 0 0 
0 0 0 0 0 0 0 0 0 
0 0 0 0 0 0 0 0 0 
0 0 0 0 0 0 0 0 0 
0 0 0 0 0 0 0 0 0 
0 0 0 0 0 0 0 0 0 
0 0 0 0 0 0 0 0 0 
0 0 0 0 0 0 0 0 0 
0 0 0 0 0 0 0 0 0 
0 0 0 0 0 0 0 0 0 
0 0 0 0 0 0 0 0 0 
0 0 0 0 0 0 0 0 0 
0 0 0 0 0 0 0 0 0 
0 0 0 0 0 0 0 0 0 
0 0 0 0 0 0 0 0 0 
0 0 0 0 0 0 0 0 0 
0 0 0 0 0 0 0 0 0 
0 0 0 0 0 0 0 0 0 
0 0 0 0 0 0 0 0 0 
0 0 0 0 0 0 0 0 0 
0 0 0 0 0 0 0 0 0 
0 0 0 0 0 0 0 0 0 
0 0 0 0 0 0 0 0 0 
0 0 0 0 0 0 0 0 0 
0 0 0 0 0 0 0 0 0 
0 0 0 0 0 0 0 0 0 
0 0 0 0 0 0 0 0 0 
0 0 0 0 0 0 0 0 0 
0 0 0 0 0 0 0 0 0 
0 0 0 0 0 0 0 0 0 
0 0 0 0 0 0 0 0 0 
0 0 0 0 0 0 0 0 0 
0 0 0 0 0 0 0 0 0 
0 0 0 0 0 0 0 0 0 
0 0 0 0 0 0 0 0 0 
0 0 0 0 0 0 0 0 0 
0 0 0 0 0 0 0 0 0 
0 0 0 0 0 0 0 0 0 
0 0 0 0 0 0 0 0 0 
0 0 0 0 0 0 0 0 0 
0 0 0 0 0 0 0 0 0 
0 0 0 0 0 0 0 0 0 
0 0 0 0 0 0 0 0 0 
0 0 0 0 0 0 0 0 0 
0 0 0 0 0 0 0 0 0 
0 0 0 0 0 0 0 0 0 
0 0 0 0 0 0 0 0 0 
0 0 0 0 0 0 0 0 0 
0 0 0 0 0 0 0 0 0 
0 0 0 0 0 0 0 0 0 
0 0 0 0 0 0 0 0 0 
0 0 0 0 0 0 0 0 0 
0 0 0 0 0 0 0 0 0 
0 0 0 0 0 0 0 0 0 
0 0 0 0 0 0 0 0 0 
0 0 0 0 0 0 0 0 0 
0 0 0 0 0 0 0 0 0 
0 0 0 0 0 0 0 0 0 
0 0 0 0 0 0 0 0 0 
0 0 0 0 0 0 0 0 0 
0 0 0 0 0 0 0 0 0 
0 0 0 0 0 0 0 0 0 
0 0 0 0 0 0 0 0 0 
0 0 0 0 0 0 0 0 0 
0 0 0 0 0 0 0 0 0 
0 0 0 0 0 0 0 0 0 
0 0 0 0 0 0 0 0 0 
0 0 0 0 0 0 0 0 0 
0 0 0 0 0 0 0 0 0 
0 0 0 0 0 0 0 0 0 
0 0 0 0 0 0 0 0 0 
0 0 0 0 0 0 0 0 0 
0 0 0 0 0 0 0 0 0 
0 0 0 0 0 0 0 0 0 
0 0 0 0 0 0 0 0 0 
0 0 0 0 0 0 0 0 0 
0 0 0 0 0 0 0 0 0 
0 0 0 0 0 0 0 0 0 
0 0 0 0 0 0 0 0 0 
0 0 0 0 0 0 0 0 0 
0 0 0 0 0 0 0 0 0 
0 0 0 0 0 0 0 0 0 
0 0 0 0 0 0 0 0 0 
0 0 0 0 0 0 0 0 0 
0 0 0 0 0 0 0 0 0 
0 0 0 0 0 0 0 0 0 
0 0 0 0 0 0 0 0 0 
0 0 0 0 0 0 0 0 0 
0 0 0 0 0 0 0 0 0 
0 0 0 0 0 0 0 0 0 
0 0 0 0 0 0 0 0 0 
0 0 0 0 0 0 0 0 0 
0 0 0 0 0 0 0 0 0 
0 0 0 0 0 0 0 0 0 
0 0 0 0 0 0 0 0 0 
0 0 0 0 0 0 0 0 0 
0 0 0 0 0 0 0 0 0 
0 0 0 0 0 0 0 0 0 
0 0 0 0 0 0 0 0 0 
0 0 0 0 0 0 0 0 0 
0 0 0 0 0 0 0 0 0 
0 0 0 0 0 0 0 0 0 
0 0 0 0 0 0 0 0 0 
0 0 0 0 0 0 0 0 0 
0 0 0 0 0 0 0 0 0 
0 2 2 2 2 2 2 2 2 
2 1 1 1 1 1 1 1 1 
1 1 1 1 1 1 1 1 1 
1 1 2 2 2 2 2 1 1 
1 1 1 1 2 2 2 2 0 
0 0 0 0 0 0 0 0 0 
0 0 0 0 0 0 0 0 0 
0 0 0 0 0 0 0 0 0 
0 0 0 0 0 0 0 0 0 
0 0 0 0 0 0 0 0 0 
0 0 0 0 0 0 0 0 0 
0 2 2 2 2 2 2 2 2 
2 2 1 1 1 1 1 1 1 
1 1 1 1 1 1 1 1 1 
1 1 2 2 2 2 2 2 1 
1 1 1 1 2 2 2 2 2 
1 0 0 0 0 0 0 0 0 
0 0 0 0 0 0 0 0 0 
0 0 0 0 0 0 0 0 0 
0 0 0 0 0 0 0 0 0 
0 0 0 0 0 0 0 0 0 
0 0 0 0 0 0 0 0 0 
0 2 2 2 2 2 2 2 2 
2 2 2 2 1 1 1 1 1 
1 1 1 1 1 1 1 1 1 
1 1 1 2 2 2 2 2 1 
1 1 1 1 2 2 2 2 2 
2 1 1 0 0 0 0 0 0 
0 0 0 0 0 0 0 0 0 
0 0 0 0 0 0 0 0 0 
0 0 0 0 0 0 0 0 0 
0 0 0 0 0 0 0 0 0 
0 0 0 0 0 0 0 0 0 
0 2 2 2 2 2 2 2 2 
2 2 2 2 2 1 1 1 1 
1 2 2 1 1 1 1 1 1 
1 1 1 1 2 2 2 2 2 
1 1 1 1 1 2 2 2 2 
2 2 1 1 1 0 0 0 0 
0 0 0 0 0 0 0 0 0 
0 0 0 0 0 0 0 0 0 
0 0 0 0 0 0 0 0 0 
0 0 0 0 0 0 0 0 0 
0 0 0 0 0 0 0 0 0 
0 2 2 2 2 2 2 1 1 
1 1 1 1 1 2 2 2 2 
2 2 2 2 1 1 1 1 2 
2 1 1 1 1 2 2 2 2 
2 1 1 1 1 1 2 2 2 
2 2 2 1 1 1 1 0 0 
0 0 0 0 0 0 0 0 0 
0 0 0 0 0 0 0 0 0 
0 0 0 0 0 0 0 0 0 
0 0 0 0 0 0 0 0 0 
0 0 0 0 0 0 0 0 0 
0 2 2 2 2 2 2 2 1 
1 1 1 1 1 1 2 2 2 
2 2 2 1 1 1 1 2 2 
2 2 2 2 2 1 1 1 1 
1 2 2 2 2 2 2 1 1 
1 1 1 2 1 1 1 1 1 
0 0 0 0 0 0 0 0 0 
0 0 0 0 0 0 0 0 0 
0 0 0 0 0 0 0 0 0 
0 0 0 0 0 0 0 0 0 
0 0 0 0 0 0 0 0 0 
0 2 2 2 2 2 2 2 2 
1 1 1 1 1 1 1 2 2 
2 2 2 2 1 1 1 1 1 
2 2 2 2 2 2 1 1 1 
1 1 1 1 2 2 2 2 1 
1 1 1 1 1 1 1 1 1 
1 1 0 0 0 0 0 0 0 
0 0 0 0 0 0 0 0 0 
0 0 0 0 0 0 0 0 0 
0 0 0 0 0 0 0 0 0 
0 0 0 0 0 0 0 0 0 
0 2 2 2 2 2 2 1 1 
1 1 1 1 1 1 1 1 2 
2 2 2 2 2 1 1 1 1 
1 2 2 2 2 2 2 1 1 
1 1 1 1 1 2 2 2 2 
1 1 1 1 1 1 1 1 1 
1 1 1 1 0 0 0 0 0 
0 0 0 0 0 0 0 0 0 
0 0 0 0 0 0 0 0 0 
0 0 0 0 0 0 0 0 0 
0 0 0 0 0 0 0 0 0 
0 2 2 2 2 2 2 1 1 
1 1 2 2 2 2 2 2 2 
1 1 1 1 1 1 1 1 1 
1 1 2 2 2 2 2 2 1 
1 1 1 1 1 1 2 2 2 
2 1 1 1 1 1 2 2 2 
2 2 1 1 1 1 0 0 0 
0 0 0 0 0 0 0 0 0 
0 0 0 0 0 0 0 0 0 
0 0 0 0 0 0 0 0 0 
0 0 0 0 0 0 0 0 0 
0 2 2 2 2 1 1 1 1 
1 1 1 2 2 2 2 2 2 
1 1 1 1 1 1 2 2 1 
1 1 1 2 1 1 1 1 2 
2 2 2 2 2 2 2 2 2 
2 2 2 1 1 1 1 2 2 
2 2 2 1 1 1 1 1 0 
0 0 0 0 0 0 0 0 0 
0 0 0 0 0 0 0 0 0 
0 0 0 0 0 0 0 0 0 
0 0 0 0 0 0 0 0 0 
0 2 2 2 2 2 2 1 1 
1 1 1 1 2 2 2 2 2 
2 1 1 1 1 1 1 2 2 
2 2 1 1 1 1 1 1 1 
2 2 2 2 2 2 1 1 1 
2 2 2 1 1 1 1 1 2 
2 2 2 2 1 1 1 1 1 
2 0 0 0 0 0 0 0 0 
0 0 0 0 0 0 0 0 0 
0 0 0 0 0 0 0 0 0 
0 0 0 0 0 0 0 0 0 
0 2 2 2 2 2 2 2 1 
1 1 1 1 1 2 2 2 2 
2 2 1 1 1 1 1 1 2 
2 2 2 2 2 1 1 1 1 
1 2 2 2 2 2 2 1 1 
1 2 2 1 1 1 1 1 1 
2 2 2 2 2 1 1 1 1 
1 2 1 0 0 0 0 0 0 
0 0 0 0 0 0 0 0 0 
0 0 0 0 0 0 0 0 0 
0 0 0 0 0 0 0 0 0 
0 1 2 2 2 2 2 2 2 
2 2 2 2 2 2 1 1 1 
1 1 1 2 2 2 1 1 1 
2 2 2 2 2 2 1 1 1 
1 1 2 2 2 2 2 2 1 
1 1 1 1 1 1 1 1 1 
1 2 2 1 1 1 1 2 2 
2 2 2 1 1 0 0 0 0 
0 0 0 0 0 0 0 0 0 
0 0 0 0 0 0 0 0 0 
0 0 0 0 0 0 0 0 0 
0 2 1 1 1 1 1 1 1 
2 2 2 2 2 2 2 1 1 
1 1 1 1 2 2 2 2 2 
2 2 2 2 2 2 2 1 1 
1 1 1 1 1 1 1 2 2 
1 1 1 1 1 1 1 1 1 
1 1 2 2 1 1 1 1 2 
2 2 2 1 1 1 1 0 0 
0 0 0 0 0 0 0 0 0 
0 0 0 0 0 0 0 0 0 
0 0 0 0 0 0 0 0 0 
0 2 2 1 1 1 1 1 1 
1 2 2 2 2 2 2 2 1 
1 1 1 1 1 2 2 2 2 
2 1 1 1 1 1 1 1 2 
2 2 2 2 2 1 1 1 1 
1 1 1 1 2 2 1 1 1 
1 1 2 2 2 1 1 1 1 
2 2 2 2 1 1 1 1 1 
0 0 0 0 0 0 0 0 0 
0 0 0 0 0 0 0 0 0 
0 0 0 0 0 0 0 0 0 
0 2 2 2 2 1 1 1 1 
1 1 2 2 2 2 2 2 2 
1 1 1 1 1 1 2 2 2 
2 2 1 1 1 1 1 1 1 
2 2 2 2 2 2 1 1 1 
1 1 1 1 1 2 2 2 2 
2 2 1 1 1 2 1 1 1 
1 2 2 2 2 1 1 1 1 
1 1 0 0 0 0 0 0 0 
0 0 0 0 0 0 0 0 0 
0 0 0 0 0 0 0 0 0 
0 2 2 2 2 2 1 1 1 
1 1 1 2 2 2 1 1 1 
1 2 2 2 1 1 1 2 2 
2 2 2 1 1 1 1 1 1 
1 2 2 2 2 2 2 1 1 
1 1 2 2 1 1 2 2 2 
2 2 2 1 1 1 1 1 1 
1 1 2 2 2 2 1 1 1 
1 1 1 1 0 0 0 0 0 
0 0 0 0 0 0 0 0 0 
0 0 0 0 0 0 0 0 0 
0 0 2 2 2 2 2 1 2 
2 2 2 2 1 1 1 1 1 
1 1 2 2 2 2 2 1 2 
2 2 2 2 1 1 1 1 1 
1 2 2 2 2 2 2 2 1 
1 1 2 2 2 1 1 1 1 
2 2 2 2 1 1 1 1 1 
1 1 1 2 2 2 2 1 1 
1 2 1 1 1 0 0 0 0 
0 0 0 0 0 0 0 0 0 
0 0 0 0 0 0 0 0 0 
0 0 0 2 2 2 2 2 1 
2 2 2 2 2 1 1 1 1 
1 1 1 2 2 2 2 2 2 
1 1 1 1 1 1 2 2 2 
2 2 2 2 2 2 2 1 1 
1 1 1 2 2 2 1 1 1 
1 2 2 2 2 1 1 1 1 
1 1 1 1 1 1 1 1 2 
2 2 2 1 1 1 0 0 0 
0 0 0 0 0 0 0 0 0 
0 0 0 0 0 0 0 0 0 
0 0 0 0 2 2 2 2 2 
1 2 2 2 2 2 1 1 1 
1 1 1 1 2 2 2 2 2 
1 1 1 1 1 1 1 2 2 
2 2 2 2 1 1 1 1 1 
1 2 2 2 2 2 1 1 1 
1 1 2 2 2 2 1 1 1 
1 1 2 2 2 1 1 1 1 
2 2 2 2 1 1 1 0 0 
0 0 0 0 0 0 0 0 0 
0 0 0 0 0 0 0 0 0 
0 0 0 0 0 1 1 1 1 
1 1 2 2 2 2 2 1 1 
2 2 2 2 2 2 2 2 2 
2 1 1 1 1 1 1 1 2 
2 2 2 2 2 1 1 1 1 
1 1 2 2 2 2 2 1 1 
1 1 1 2 2 2 2 1 1 
1 1 2 2 2 2 1 1 1 
1 2 2 2 2 1 1 1 0 
0 0 0 0 0 0 0 0 0 
0 0 0 0 0 0 0 0 0 
0 0 0 0 0 0 1 1 1 
1 1 1 2 2 1 1 2 2 
2 2 2 2 2 2 1 1 1 
1 1 1 1 1 1 1 1 1 
2 2 2 2 2 2 1 1 1 
1 1 1 2 2 2 2 2 1 
1 1 1 1 1 1 1 1 1 
2 2 2 2 2 2 2 1 1 
1 1 2 2 2 2 1 1 1 
0 0 0 0 0 0 0 0 0 
0 0 0 0 0 0 0 0 0 
0 0 0 0 0 0 0 1 1 
1 1 1 1 2 2 1 1 1 
2 2 2 2 2 2 2 1 1 
1 1 1 2 2 2 2 2 2 
2 1 2 2 2 2 2 1 1 
1 1 1 1 2 2 2 2 2 
1 1 1 1 2 1 1 1 1 
1 2 2 2 2 2 2 2 1 
1 1 1 2 2 2 2 1 1 
1 0 0 0 0 0 0 0 0 
0 0 0 0 0 0 0 0 0 
0 0 0 0 0 0 0 0 1 
1 1 1 1 1 2 2 1 1 
1 2 2 2 2 2 2 2 1 
1 1 1 1 2 2 2 2 2 
2 2 1 1 1 1 1 1 2 
2 2 2 2 1 1 1 1 1 
2 2 2 2 2 2 1 1 1 
1 1 1 2 2 2 2 2 2 
1 1 1 1 2 2 2 2 2 
2 1 0 0 0 0 0 0 0 
0 0 0 0 0 0 0 0 0 
0 0 0 0 0 0 0 0 0 
2 2 2 2 2 2 2 1 1 
1 1 1 1 2 2 2 2 2 
1 1 1 1 1 2 2 2 2 
2 2 2 1 1 1 1 1 1 
2 2 2 2 2 1 1 1 1 
1 2 2 2 2 2 2 1 1 
1 1 1 1 1 1 1 2 1 
1 1 2 2 2 2 1 1 1 
1 1 1 0 0 0 0 0 0 
0 0 0 0 0 0 0 0 0 
0 0 0 0 0 0 0 0 0 
0 2 2 2 2 2 2 2 1 
1 1 1 1 2 2 2 2 2 
2 2 1 1 1 1 2 2 2 
2 2 2 2 1 1 1 1 1 
1 2 2 2 2 1 1 1 1 
1 1 2 2 2 2 2 2 1 
1 1 1 1 1 1 1 1 1 
1 1 1 1 2 2 2 1 1 
1 1 1 1 0 0 0 0 0 
0 0 0 0 0 0 0 0 0 
0 0 0 0 0 0 0 0 0 
0 0 2 2 2 2 2 2 2 
1 1 1 1 1 2 2 2 2 
2 2 2 1 2 2 2 2 2 
1 1 1 1 2 1 1 1 1 
1 1 2 2 2 2 1 1 1 
1 1 1 2 2 2 1 1 1 
1 1 2 2 1 1 1 1 1 
1 1 1 1 1 2 2 2 1 
1 1 1 1 1 0 0 0 0 
0 0 0 0 0 0 0 0 0 
0 0 0 0 0 0 0 0 0 
0 0 0 2 2 2 2 2 2 
2 1 1 1 1 1 2 2 2 
2 2 2 2 2 2 2 2 2 
2 1 1 1 1 2 2 2 2 
1 1 1 2 2 2 2 1 1 
1 1 1 2 2 2 2 1 1 
1 1 1 2 2 1 1 1 1 
1 1 1 1 1 1 2 2 2 
2 2 1 1 1 1 0 0 0 
0 0 0 0 0 0 0 0 0 
0 0 0 0 0 0 0 0 0 
0 0 0 0 1 1 1 1 1 
1 2 2 2 2 2 2 1 1 
1 1 1 1 1 2 2 2 2 
2 2 1 1 1 1 2 2 2 
2 2 2 2 2 2 2 2 2 
2 2 2 2 1 1 2 2 1 
1 1 1 1 2 2 1 1 1 
1 1 1 1 1 1 1 2 2 
2 2 2 2 1 1 1 0 0 
0 0 0 0 0 0 0 0 0 
0 0 0 0 0 0 0 0 0 
0 0 0 0 0 1 1 1 1 
1 1 2 2 2 2 2 2 1 
1 1 1 1 1 1 2 2 2 
2 2 2 1 1 1 1 1 2 
2 2 2 2 1 1 1 1 1 
2 2 2 2 2 1 1 1 1 
1 1 1 1 1 2 2 1 1 
1 2 2 2 1 1 1 1 2 
2 2 2 2 2 1 1 1 0 
0 0 0 0 0 0 0 0 0 
0 0 0 0 0 0 0 0 0 
0 0 0 0 0 0 1 1 1 
1 1 1 2 2 2 2 2 2 
1 1 1 1 1 1 1 2 2 
2 2 1 2 2 1 1 1 1 
2 2 2 2 1 1 1 1 1 
1 2 2 2 2 2 1 1 1 
1 1 1 1 1 1 2 1 1 
1 1 2 2 2 2 2 2 1 
1 1 1 1 1 1 1 1 1 
0 0 0 0 0 0 0 0 0 
0 0 0 0 0 0 0 0 0 
0 0 0 0 0 0 0 1 1 
1 1 1 1 2 2 2 2 2 
2 1 1 1 1 1 1 1 1 
1 1 1 1 2 2 2 2 1 
1 2 2 2 1 1 1 1 1 
1 1 2 2 2 2 2 1 1 
1 1 1 2 2 2 2 2 1 
1 1 1 2 2 2 2 2 2 
1 1 1 1 1 1 1 1 1 
1 0 0 0 0 0 0 0 0 
0 0 0 0 0 0 0 0 0 
0 0 0 0 0 0 0 0 1 
1 1 1 1 1 2 2 2 2 
2 2 2 2 2 2 2 2 2 
1 1 1 1 1 2 2 2 2 
2 2 2 2 2 2 2 1 1 
1 1 1 2 2 2 2 2 1 
1 1 1 1 2 2 2 2 2 
1 1 1 1 1 1 2 2 2 
2 1 1 1 1 1 1 1 1 
1 1 0 0 0 0 0 0 0 
0 0 0 0 0 0 0 0 0 
0 0 0 0 0 0 0 0 0 
2 2 2 2 2 2 2 1 1 
1 1 1 1 2 2 2 2 2 
2 1 1 1 1 1 2 2 2 
2 2 2 2 2 2 2 2 1 
1 1 1 1 2 1 1 1 2 
1 1 1 1 1 2 2 2 2 
2 1 1 1 1 1 1 2 2 
2 2 1 1 1 1 1 1 1 
1 1 1 0 0 0 0 0 0 
0 0 0 0 0 0 0 0 0 
0 0 0 0 0 0 0 0 0 
0 2 2 2 2 2 2 2 1 
1 1 1 1 1 2 2 2 2 
2 2 1 1 1 1 1 2 2 
2 2 2 2 2 2 2 2 2 
2 2 2 2 2 1 1 1 1 
2 2 2 2 2 2 1 1 1 
1 1 2 1 1 1 1 1 2 
2 2 2 1 1 1 1 1 2 
2 1 1 1 0 0 0 0 0 
0 0 0 0 0 0 0 0 0 
0 0 0 0 0 0 0 0 0 
0 0 2 2 2 2 2 2 2 
1 1 1 1 1 1 1 2 2 
2 2 2 1 1 1 1 1 2 
1 1 1 1 1 2 2 1 1 
1 1 2 2 2 2 1 1 1 
1 2 2 2 2 2 2 1 1 
1 1 1 2 2 2 2 2 1 
1 1 1 1 2 2 2 2 2 
2 2 1 1 1 0 0 0 0 
0 0 0 0 0 0 0 0 0 
0 0 0 0 0 0 0 0 0 
0 0 0 1 1 1 2 2 2 
2 1 1 1 1 1 1 1 2 
2 2 2 2 2 2 2 2 2 
2 1 1 1 1 1 2 2 1 
1 1 1 2 2 2 2 1 1 
1 1 2 2 2 2 2 1 1 
1 1 1 2 2 2 2 2 2 
1 1 1 1 1 2 2 2 2 
2 2 1 1 1 1 0 0 0 
0 0 0 0 0 0 0 0 0 
0 0 0 0 0 0 0 0 0 
0 0 0 0 1 1 1 2 2 
2 2 1 2 2 2 2 2 2 
1 1 1 1 1 1 2 2 2 
2 2 1 1 1 1 1 2 2 
1 1 1 1 2 2 2 2 1 
1 1 1 2 2 2 2 2 1 
1 1 1 1 2 2 2 2 2 
2 1 1 1 1 1 2 2 2 
2 1 1 1 1 1 1 0 0 
0 0 0 0 0 0 0 0 0 
0 0 0 0 0 0 0 0 0 
0 0 0 0 0 1 1 1 1 
1 1 1 1 1 2 2 2 2 
2 1 1 1 1 1 1 2 2 
2 2 2 1 1 1 1 1 2 
2 1 1 1 1 2 2 2 2 
1 1 1 1 2 2 2 2 2 
1 1 1 1 1 2 2 2 2 
2 2 1 1 1 1 1 2 2 
2 2 1 1 1 1 1 1 0 
0 0 0 0 0 0 0 0 0 
0 0 0 0 0 0 0 0 0 
0 0 0 0 0 0 1 1 1 
1 1 1 1 1 1 2 2 2 
2 2 1 1 1 1 1 1 2 
2 2 2 2 1 1 1 1 1 
2 2 1 1 1 1 2 2 2 
2 1 1 1 1 2 1 1 1 
1 2 2 2 2 2 1 1 1 
2 2 1 1 1 1 1 1 2 
2 2 2 1 1 1 1 1 1 
0 0 0 0 0 0 0 0 0 
0 0 0 0 0 0 0 0 0 
0 0 0 0 0 0 0 1 1 
1 1 1 1 1 1 1 2 2 
2 2 2 1 1 1 1 1 1 
2 2 2 2 2 2 1 2 2 
2 2 1 1 1 1 1 2 2 
2 2 2 2 2 2 2 1 1 
1 1 2 2 2 2 2 1 1 
1 1 1 1 2 2 2 2 1 
1 1 1 1 2 2 1 1 1 
1 0 0 0 0 0 0 0 0 
0 0 0 0 0 0 0 0 0 
0 0 0 0 0 0 0 0 1 
1 1 1 1 1 1 1 1 2 
2 2 2 2 2 1 1 1 1 
1 2 2 1 1 1 1 1 2 
2 2 2 2 2 2 2 1 1 
1 1 1 2 2 2 2 2 1 
1 1 1 2 2 2 2 2 1 
1 1 1 1 1 2 2 2 2 
1 1 1 1 1 2 2 2 2 
2 2 0 0 0 0 0 0 0 
0 0 0 0 0 0 0 0 0 
0 0 0 0 0 0 0 0 0 
1 1 2 2 2 1 1 1 1 
1 1 1 1 1 1 2 2 2 
2 2 2 1 1 1 1 1 1 
2 2 2 2 2 2 2 1 1 
1 1 1 1 2 2 2 2 2 
1 1 1 1 2 2 2 2 2 
1 1 1 1 1 1 2 2 2 
2 1 1 1 1 1 2 2 2 
2 2 2 0 0 0 0 0 0 
0 0 0 0 0 0 0 0 0 
0 0 0 0 0 0 0 0 0 
0 1 1 1 1 2 2 2 2 
2 2 1 1 1 1 1 2 2 
2 2 2 2 1 1 1 1 1 
1 2 2 2 2 2 2 2 1 
1 1 1 1 1 2 2 2 2 
1 1 1 1 1 2 2 2 2 
2 2 2 1 1 1 1 2 2 
2 2 1 1 1 1 2 2 2 
2 2 2 2 0 0 0 0 0 
0 0 0 0 0 0 0 0 0 
0 0 0 0 0 0 0 0 0 
0 0 1 1 1 1 2 2 2 
2 2 2 1 1 1 1 1 2 
2 2 2 2 2 1 1 1 1 
2 2 2 2 1 1 1 2 2 
1 1 1 1 1 1 2 2 2 
2 2 1 1 1 1 2 1 1 
1 1 2 2 2 1 1 1 2 
2 2 2 2 1 1 1 2 2 
2 1 1 1 1 0 0 0 0 
0 0 0 0 0 0 0 0 0 
0 0 0 0 0 0 0 0 0 
0 0 0 1 1 1 1 2 2 
2 2 2 2 1 1 1 1 1 
1 2 2 2 2 2 1 1 1 
2 2 2 2 2 1 1 1 1 
1 2 2 2 2 2 2 1 1 
1 1 1 2 2 2 2 2 1 
1 1 1 2 2 2 2 2 1 
1 1 1 2 2 2 1 2 2 
2 2 1 1 1 1 0 0 0 
0 0 0 0 0 0 0 0 0 
0 0 0 0 0 0 0 0 0 
0 0 0 0 1 1 1 1 2 
2 2 2 2 2 1 1 1 1 
1 1 2 1 1 1 2 1 1 
1 2 2 2 2 2 1 1 1 
1 1 2 2 2 2 2 2 1 
1 1 1 1 2 2 2 2 2 
1 1 1 1 2 2 2 2 2 
1 1 1 1 1 1 1 1 1 
1 1 1 1 1 1 1 0 0 
0 0 0 0 0 0 0 0 0 
0 0 0 0 0 0 0 0 0 
0 0 0 0 0 1 1 1 1 
1 1 1 1 1 1 1 2 2 
2 2 2 1 1 1 1 2 2 
2 2 2 2 2 2 2 1 1 
1 1 1 2 2 2 2 2 2 
1 1 1 1 1 2 2 2 2 
2 1 1 1 1 2 2 2 2 
2 1 1 1 1 1 2 1 1 
1 1 1 2 1 1 1 1 0 
0 0 0 0 0 0 0 0 0 
0 0 0 0 0 0 0 0 0 
0 0 0 0 0 0 1 1 1 
2 2 2 1 1 1 1 1 2 
2 2 2 2 1 1 1 1 2 
2 2 2 1 1 2 2 2 1 
1 1 1 1 2 2 2 2 2 
2 1 1 1 1 1 2 2 2 
2 2 1 1 1 1 2 2 2 
2 2 1 1 1 1 1 2 1 
1 1 1 2 2 1 1 1 1 
0 0 0 0 0 0 0 0 0 
0 0 0 0 0 0 0 0 0 
0 0 0 0 0 0 0 2 2 
2 2 2 2 1 1 1 1 1 
2 2 2 2 2 2 1 1 1 
2 2 2 2 1 1 2 2 2 
1 1 1 1 1 2 2 2 2 
2 1 1 1 1 1 1 2 2 
2 2 2 2 1 1 1 2 2 
2 2 2 1 1 1 1 1 2 
2 1 1 1 2 2 1 1 1 
1 0 0 0 0 0 0 0 0 
0 0 0 0 0 0 0 0 0 
0 0 0 0 0 0 0 0 2 
2 2 2 2 2 1 1 1 1 
1 2 2 2 2 2 1 1 1 
1 2 2 2 2 1 1 1 1 
1 2 2 2 2 2 2 1 1 
1 1 2 2 2 2 2 2 1 
1 1 1 1 2 1 1 1 2 
1 1 1 1 2 2 2 2 2 
2 2 1 1 1 2 2 2 2 
2 2 0 0 0 0 0 0 0 
0 0 0 0 0 0 0 0 0 
0 0 0 0 0 0 0 0 0 
2 2 2 2 2 2 1 1 1 
1 1 2 2 2 2 2 1 1 
1 1 2 2 2 2 1 1 1 
1 1 2 2 2 2 2 1 1 
1 1 1 2 2 2 2 2 2 
1 1 1 1 1 2 2 2 2 
2 1 1 1 1 2 2 2 2 
2 2 2 1 1 1 2 2 2 
2 2 2 0 0 0 0 0 0 
0 0 0 0 0 0 0 0 0 
0 0 0 0 0 0 0 0 0 
0 2 2 2 2 2 2 1 2 
2 2 2 1 1 1 1 2 1 
1 1 1 2 2 2 2 1 1 
1 1 1 2 2 2 2 2 1 
1 1 1 1 1 2 2 2 2 
2 1 1 1 1 1 2 2 2 
2 2 1 1 1 1 1 2 2 
2 2 2 2 1 1 1 2 2 
2 2 2 2 0 0 0 0 0 
0 0 0 0 0 0 0 0 0 
0 0 0 0 0 0 0 0 0 
0 0 2 2 2 2 1 1 1 
2 2 2 2 1 1 1 1 1 
2 2 2 2 2 2 2 2 1 
1 1 1 1 2 2 2 2 2 
1 1 1 1 1 1 2 2 2 
2 2 1 1 1 1 1 2 2 
2 2 2 1 1 1 1 1 2 
2 2 2 2 2 2 2 2 2 
1 1 1 1 1 0 0 0 0 
0 0 0 0 0 0 0 0 0 
0 0 0 0 0 0 0 0 0 
0 0 0 2 2 2 2 1 1 
1 1 2 2 2 1 1 1 1 
1 2 2 2 2 2 1 1 1 
2 2 2 2 2 2 2 2 2 
2 1 1 1 1 1 1 2 2 
2 2 2 1 1 1 1 1 2 
2 2 2 2 1 1 1 1 1 
1 1 1 1 1 1 2 2 2 
2 1 1 1 1 1 0 0 0 
0 0 0 0 0 0 0 0 0 
0 0 0 0 0 0 0 0 0 
0 0 0 0 2 2 2 2 1 
1 1 1 2 2 2 1 1 1 
1 1 2 2 2 2 2 1 1 
1 2 2 2 2 2 1 1 1 
1 1 2 2 2 2 2 2 2 
1 1 1 2 2 2 2 2 2 
2 2 2 2 2 1 1 2 2 
2 1 1 1 1 1 1 2 2 
2 2 1 1 1 1 1 0 0 
0 0 0 0 0 0 0 0 0 
0 0 0 0 0 0 0 0 0 
0 0 0 0 0 2 2 2 2 
1 1 1 1 2 2 2 1 1 
1 1 1 2 2 2 2 2 1 
1 1 2 2 2 2 2 1 1 
1 1 1 1 2 2 2 2 2 
2 1 1 1 1 1 2 2 2 
2 1 1 1 1 1 2 2 2 
2 2 1 1 1 1 1 1 2 
2 2 2 1 1 1 1 1 0 
0 0 0 0 0 0 0 0 0 
0 0 0 0 0 0 0 0 0 
0 0 0 0 0 0 2 2 2 
1 1 1 1 1 2 2 2 1 
2 2 2 2 2 2 2 2 2 
1 1 1 2 2 2 2 2 1 
1 1 1 1 1 2 2 2 2 
2 1 1 1 1 1 1 2 2 
2 2 1 1 1 1 1 2 2 
2 2 2 1 1 1 1 1 1 
2 2 2 2 1 1 1 1 1 
0 0 0 0 0 0 0 0 0 
0 0 0 0 0 0 0 0 0 
0 0 0 0 0 0 0 2 2 
2 1 1 1 1 1 2 2 2 
2 2 2 1 1 1 2 2 1 
1 1 1 1 2 2 2 2 1 
1 1 1 1 1 1 2 2 2 
2 2 1 1 1 1 1 1 2 
2 2 2 1 1 1 1 1 2 
2 2 2 1 1 2 2 2 1 
1 2 2 2 2 2 2 1 1 
1 0 0 0 0 0 0 0 0 
0 0 0 0 0 0 0 0 0 
0 0 0 0 0 0 0 0 0 
2 2 2 2 2 2 2 1 1 
1 2 2 2 1 1 1 2 2 
1 1 1 1 1 2 2 2 2 
1 2 2 2 2 2 2 2 2 
2 2 2 1 1 1 1 1 1 
2 2 2 2 1 1 1 1 1 
2 2 2 1 1 1 1 2 2 
2 2 2 1 1 1 1 1 1 
1 0 0 0 0 0 0 0 0 
0 0 0 0 0 0 0 0 0 
0 0 0 0 0 0 0 0 0 
0 0 2 2 2 2 2 2 1 
1 1 2 2 2 1 1 1 2 
2 1 1 1 2 2 2 1 1 
1 1 2 2 2 2 2 2 1 
1 1 1 1 2 2 2 2 2 
1 2 2 2 1 1 1 1 1 
1 2 2 1 1 1 1 1 2 
2 2 2 2 1 1 1 1 1 
1 0 0 0 0 0 0 0 0 
0 0 0 0 0 0 0 0 0 
0 0 0 0 0 0 0 0 0 
0 0 0 0 2 2 2 2 2 
1 1 1 2 2 2 1 1 1 
2 2 2 2 2 2 2 2 1 
1 1 1 2 2 2 2 2 2 
1 1 1 1 1 2 2 2 2 
2 2 2 2 2 2 2 2 2 
2 1 2 2 1 1 1 1 1 
2 2 2 2 2 1 1 1 1 
1 0 0 0 0 0 0 0 0 
0 0 0 0 0 0 0 0 0 
0 0 0 0 0 0 0 0 0 
0 0 0 0 0 0 2 2 2 
2 1 1 1 2 2 2 1 1 
1 2 2 2 2 2 2 2 2 
1 1 1 1 2 2 2 2 2 
2 1 1 1 1 1 2 2 2 
2 2 2 1 1 1 2 2 2 
2 2 1 2 2 1 1 1 1 
1 2 2 2 2 2 1 1 1 
1 0 0 0 0 0 0 0 0 
0 0 0 0 0 0 0 0 0 
0 0 0 0 0 0 0 0 0 
0 0 0 0 0 0 0 0 2 
2 2 1 1 1 2 2 2 1 
1 1 2 2 2 2 2 2 2 
2 2 1 1 1 1 2 2 2 
2 2 1 1 1 1 1 2 2 
2 2 2 1 1 1 1 2 2 
2 2 1 1 1 1 1 1 1 
1 1 2 2 2 2 2 1 1 
1 0 0 0 0 0 0 0 0 
0 0 0 0 0 0 0 0 0 
0 0 0 0 0 0 0 0 0 
0 0 0 0 0 0 0 0 0 
0 2 2 1 1 1 2 2 2 
1 1 1 2 2 2 2 2 2 
2 2 2 1 1 1 1 1 1 
2 2 2 1 1 1 1 1 2 
2 2 2 2 1 1 1 1 2 
2 2 2 1 1 1 1 1 2 
2 2 2 1 1 1 1 1 1 
1 0 0 0 0 0 0 0 0 
0 0 0 0 0 0 0 0 0 
0 0 0 0 0 0 0 0 0 
0 0 0 0 0 0 0 0 0 
0 0 0 2 1 1 1 1 2 
1 1 1 1 2 2 2 2 2 
2 2 2 2 1 1 1 1 1 
1 2 2 2 2 2 2 2 1 
2 2 2 1 1 1 1 1 1 
2 2 2 2 1 1 1 1 1 
2 2 2 2 1 1 1 1 1 
1 0 0 0 0 0 0 0 0 
0 0 0 0 0 0 0 0 0 
0 0 0 0 0 0 0 0 0 
0 0 0 0 0 0 0 0 0 
0 0 0 0 0 1 1 1 2 
2 2 2 2 1 1 1 1 1 
1 2 2 2 2 2 2 2 2 
2 2 2 2 2 2 2 2 2 
2 2 2 2 2 1 1 1 1 
1 2 2 2 2 1 1 1 1 
1 2 2 2 2 1 1 1 1 
1 0 0 0 0 0 0 0 0 
0 0 0 0 0 0 0 0 0 
0 0 0 0 0 0 0 0 0 
0 0 0 0 0 0 0 0 0 
0 0 0 0 0 0 0 1 1 
2 2 2 2 2 1 1 1 1 
1 2 2 2 2 2 2 2 2 
2 2 2 2 2 2 2 2 2 
2 2 2 2 2 2 1 1 1 
1 1 2 2 2 2 1 1 1 
1 1 2 2 2 2 1 1 1 
1 0 0 0 0 0 0 0 0 
0 0 0 0 0 0 0 0 0 
0 0 0 0 0 0 0 0 0 
0 0 0 0 0 0 0 0 0 
0 0 0 0 0 0 0 0 0 
2 2 2 2 2 2 1 1 1 
1 1 2 2 2 2 2 2 2 
2 2 2 2 1 1 1 1 1 
1 1 2 2 2 2 2 2 2 
2 2 2 1 1 1 1 2 2 
2 2 2 2 2 2 2 2 1 
1 0 0 0 0 0 0 0 0 
0 0 0 0 0 0 0 0 0 
0 0 0 0 0 0 0 0 0 
0 0 0 0 0 0 0 0 0 
0 0 0 0 0 0 0 0 0 
0 0 2 2 2 2 2 1 1 
1 1 1 2 2 2 2 2 2 
2 2 2 2 2 1 1 1 1 
1 1 1 2 2 2 2 2 2 
2 2 2 2 1 1 1 1 2 
2 2 2 2 1 1 2 2 2 
1 0 0 0 0 0 0 0 0 
0 0 0 0 0 0 0 0 0 
0 0 0 0 0 0 0 0 0 
0 0 0 0 0 0 0 0 0 
0 0 0 0 0 0 0 0 0 
0 0 0 0 2 2 2 2 1 
1 1 1 1 2 2 2 2 2 
1 2 2 2 2 2 1 1 1 
1 1 1 1 2 1 1 1 1 
1 2 2 2 2 1 1 1 1 
2 2 2 2 1 1 1 1 1 
2 0 0 0 0 0 0 0 0 
0 0 0 0 0 0 0 0 0 
0 0 0 0 0 0 0 0 0 
0 0 0 0 0 0 0 0 0 
0 0 0 0 0 0 0 0 0 
0 0 0 0 0 0 2 2 2 
2 2 2 2 2 1 1 1 1 
1 1 2 2 2 2 1 1 1 
1 2 2 2 2 2 1 1 1 
1 1 2 2 2 2 1 1 1 
1 2 2 2 1 1 1 1 1 
1 0 0 0 0 0 0 0 0 
0 0 0 0 0 0 0 0 0 
0 0 0 0 0 0 0 0 0 
0 0 0 0 0 0 0 0 0 
0 0 0 0 0 0 0 0 0 
0 0 0 0 0 0 0 0 2 
2 2 2 2 2 2 1 1 1 
1 1 1 2 2 2 2 2 2 
2 2 2 2 2 2 2 1 1 
1 1 1 2 2 2 2 1 1 
1 1 2 2 2 1 1 1 1 
1 0 0 0 0 0 0 0 0 
0 0 0 0 0 0 0 0 0 
0 0 0 0 0 0 0 0 0 
0 0 0 0 0 0 0 0 0 
0 0 0 0 0 0 0 0 0 
0 0 0 0 0 0 0 0 0 
0 2 2 2 2 2 2 1 1 
1 1 1 1 2 2 2 2 2 
2 2 2 2 2 2 2 2 1 
1 1 1 1 2 2 2 2 1 
1 1 1 2 2 2 1 1 1 
1 0 0 0 0 0 0 0 0 
0 0 0 0 0 0 0 0 0 
0 0 0 0 0 0 0 0 0 
0 0 0 0 0 0 0 0 0 
0 0 0 0 0 0 0 0 0 
0 0 0 0 0 0 0 0 0 
0 0 0 2 2 2 2 2 1 
1 1 1 1 1 2 2 2 2 
2 2 2 2 2 2 2 2 1 
1 1 1 1 1 2 2 2 2 
1 1 1 1 2 2 2 1 1 
1 0 0 0 0 0 0 0 0 
0 0 0 0 0 0 0 0 0 
0 0 0 0 0 0 0 0 0 
0 0 0 0 0 0 0 0 0 
0 0 0 0 0 0 0 0 0 
0 0 0 0 0 0 0 0 0 
0 0 0 0 0 0 0 0 0 
0 0 0 0 0 0 0 0 0 
0 0 0 0 0 0 0 0 0 
0 0 0 0 0 0 0 0 0 
0 0 0 0 0 0 0 0 0 
0 0 0 0 0 0 0 0 0 
0 0 0 0 0 0 0 0 0 
0 0 0 0 0 0 0 0 0 
0 0 0 0 0 0 0 0 0 
0 0 0 0 0 0 0 0 0 
0 0 0 0 0 0 0 0 0 
0 0 0 0 0 0 0 0 0 
0 0 0 0 0 0 0 0 0 
0 0 0 0 0 0 0 0 0 
0 0 0 0 0 0 0 0 0 
0 0 0 0 0 0 0 0 0 
0 0 0 0 0 0 0 0 0 
0 0 0 0 0 0 0 0 0 
0 0 0 0 0 0 0 0 0 
0 0 0 0 0 0 0 0 0 
0 0 0 0 0 0 0 0 0 
0 0 0 0 0 0 0 0 0 
0 0 0 0 0 0 0 0 0 
0 0 0 0 0 0 0 0 0 
0 0 0 0 0 0 0 0 0 
0 0 0 0 0 0 0 0 0 
0 0 0 0 0 0 0 0 0 
0 0 0 0 0 0 0 0 0 
0 0 0 0 0 0 0 0 0 
0 0 0 0 0 0 0 0 0 
0 0 0 0 0 0 0 0 0 
0 0 0 0 0 0 0 0 0 
0 0 0 0 0 0 0 0 0 
0 0 0 0 0 0 0 0 0 
0 0 0 0 0 0 0 0 0 
0 0 0 0 0 0 0 0 0 
0 0 0 0 0 0 0 0 0 
0 0 0 0 0 0 0 0 0 
0 0 0 0 0 0 0 0 0 
0 0 0 0 0 0 0 0 0 
0 0 0 0 0 0 0 0 0 
0 0 0 0 0 0 0 0 0 
0 0 0 0 0 0 0 0 0 
0 0 0 0 0 0 0 0 0 
0 0 0 0 0 0 0 0 0 
0 0 0 0 0 0 0 0 0 
0 0 0 0 0 0 0 0 0 
0 0 0 0 0 0 0 0 0 
0 0 0 0 0 0 0 0 0 
0 0 0 0 0 0 0 0 0 
0 0 0 0 0 0 0 0 0 
0 0 0 0 0 0 0 0 0 
0 0 0 0 0 0 0 0 0 
0 0 0 0 0 0 0 0 0 
0 0 0 0 0 0 0 0 0 
0 0 0 0 0 0 0 0 0 
0 0 0 0 0 0 0 0 0 
0 0 0 0 0 0 0 0 0 
0 0 0 0 0 0 0 0 0 
0 0 0 0 0 0 0 0 0 
0 0 0 0 0 0 0 0 0 
0 0 0 0 0 0 0 0 0 
0 0 0 0 0 0 0 0 0 
0 0 0 0 0 0 0 0 0 
0 0 0 0 0 0 0 0 0 
0 0 0 0 0 0 0 0 0 
0 0 0 0 0 0 0 0 0 
0 0 0 0 0 0 0 0 0 
0 0 0 0 0 0 0 0 0 
0 0 0 0 0 0 0 0 0 
0 0 0 0 0 0 0 0 0 
0 0 0 0 0 0 0 0 0 
0 0 0 0 0 0 0 0 0 
0 0 0 0 0 0 0 0 0 
0 0 0 0 0 0 0 0 0 
0 0 0 0 0 0 0 0 0 
0 0 0 0 0 0 0 0 0 
0 0 0 0 0 0 0 0 0 
0 0 0 0 0 0 0 0 0 
0 0 0 0 0 0 0 0 0 
0 0 0 0 0 0 0 0 0 
0 0 0 0 0 0 0 0 0 
0 0 0 0 0 0 0 0 0 
0 0 0 0 0 0 0 0 0 
0 0 0 0 0 0 0 0 0 
0 0 0 0 0 0 0 0 0 
0 0 0 0 0 0 0 0 0 
0 0 0 0 0 0 0 0 0 
0 0 0 0 0 0 0 0 0 
0 0 0 0 0 0 0 0 0 
0 0 0 0 0 0 0 0 0 
0 0 0 0 0 0 0 0 0 
0 0 0 0 0 0 0 0 0 
0 0 0 0 0 0 0 0 0 
0 0 0 0 0 0 0 0 0 
0 0 0 0 0 0 0 0 0 
0 0 0 0 0 0 0 0 0 
0 0 0 0 0 0 0 0 0 
0 0 0 0 0 0 0 0 0 
0 0 0 0 0 0 0 0 0 
0 0 0 0 0 0 0 0 0 
0 0 0 0 0 0 0 0 0 
0 0 0 0 0 0 0 0 0 
0 0 0 0 0 0 0 0 0 
0 0 0 0 0 0 0 0 0 
0 0 0 0 0 0 0 0 0 
0 0 0 0 0 0 0 0 0 
0 0 0 0 0 0 0 0 0 
0 
CellId 1 10000 long
0 0 0 0 0 0 0 0 0 
0 0 0 0 0 0 0 0 0 
0 0 0 0 0 0 0 0 0 
0 0 0 0 0 0 0 0 0 
0 0 0 0 0 0 0 0 0 
0 0 0 0 0 0 0 0 0 
0 0 0 0 0 0 0 0 0 
0 0 0 0 0 0 0 0 0 
0 0 0 0 0 0 0 0 0 
0 0 0 0 0 0 0 0 0 
0 0 0 0 0 0 0 0 0 
0 0 0 0 0 0 0 0 0 
0 0 0 0 0 0 0 0 0 
0 0 0 0 0 0 0 0 0 
0 0 0 0 0 0 0 0 0 
0 0 0 0 0 0 0 0 0 
0 0 0 0 0 0 0 0 0 
0 0 0 0 0 0 0 0 0 
0 0 0 0 0 0 0 0 0 
0 0 0 0 0 0 0 0 0 
0 0 0 0 0 0 0 0 0 
0 0 0 0 0 0 0 0 0 
0 0 0 0 0 0 0 0 0 
0 0 0 0 0 0 0 0 0 
0 0 0 0 0 0 0 0 0 
0 0 0 0 0 0 0 0 0 
0 0 0 0 0 0 0 0 0 
0 0 0 0 0 0 0 0 0 
0 0 0 0 0 0 0 0 0 
0 0 0 0 0 0 0 0 0 
0 0 0 0 0 0 0 0 0 
0 0 0 0 0 0 0 0 0 
0 0 0 0 0 0 0 0 0 
0 0 0 0 0 0 0 0 0 
0 0 0 0 0 0 0 0 0 
0 0 0 0 0 0 0 0 0 
0 0 0 0 0 0 0 0 0 
0 0 0 0 0 0 0 0 0 
0 0 0 0 0 0 0 0 0 
0 0 0 0 0 0 0 0 0 
0 0 0 0 0 0 0 0 0 
0 0 0 0 0 0 0 0 0 
0 0 0 0 0 0 0 0 0 
0 0 0 0 0 0 0 0 0 
0 0 0 0 0 0 0 0 0 
0 0 0 0 0 0 0 0 0 
0 0 0 0 0 0 0 0 0 
0 0 0 0 0 0 0 0 0 
0 0 0 0 0 0 0 0 0 
0 0 0 0 0 0 0 0 0 
0 0 0 0 0 0 0 0 0 
0 0 0 0 0 0 0 0 0 
0 0 0 0 0 0 0 0 0 
0 0 0 0 0 0 0 0 0 
0 0 0 0 0 0 0 0 0 
0 0 0 0 0 0 0 0 0 
0 0 0 0 0 0 0 0 0 
0 0 0 0 0 0 0 0 0 
0 0 0 0 0 0 0 0 0 
0 0 0 0 0 0 0 0 0 
0 0 0 0 0 0 0 0 0 
0 0 0 0 0 0 0 0 0 
0 0 0 0 0 0 0 0 0 
0 0 0 0 0 0 0 0 0 
0 0 0 0 0 0 0 0 0 
0 0 0 0 0 0 0 0 0 
0 0 0 0 0 0 0 0 0 
0 0 0 0 0 0 0 0 0 
0 0 0 0 0 0 0 0 0 
0 0 0 0 0 0 0 0 0 
0 0 0 0 0 0 0 0 0 
0 0 0 0 0 0 0 0 0 
0 0 0 0 0 0 0 0 0 
0 0 0 0 0 0 0 0 0 
0 0 0 0 0 0 0 0 0 
0 0 0 0 0 0 0 0 0 
0 0 0 0 0 0 0 0 0 
0 0 0 0 0 0 0 0 0 
0 0 0 0 0 0 0 0 0 
0 0 0 0 0 0 0 0 0 
0 0 0 0 0 0 0 0 0 
0 0 0 0 0 0 0 0 0 
0 0 0 0 0 0 0 0 0 
0 0 0 0 0 0 0 0 0 
0 0 0 0 0 0 0 0 0 
0 0 0 0 0 0 0 0 0 
0 0 0 0 0 0 0 0 0 
0 0 0 0 0 0 0 0 0 
0 0 0 0 0 0 0 0 0 
0 0 0 0 0 0 0 0 0 
0 0 0 0 0 0 0 0 0 
0 0 0 0 0 0 0 0 0 
0 0 0 0 0 0 0 0 0 
0 0 0 0 0 0 0 0 0 
0 0 0 0 0 0 0 0 0 
0 0 0 0 0 0 0 0 0 
0 0 0 0 0 0 0 0 0 
0 0 0 0 0 0 0 0 0 
0 0 0 0 0 0 0 0 0 
0 0 0 0 0 0 0 0 0 
0 0 0 0 0 0 0 0 0 
0 0 0 0 0 0 0 0 0 
0 0 0 0 0 0 0 0 0 
0 0 0 0 0 0 0 0 0 
0 0 0 0 0 0 0 0 0 
0 0 0 0 0 0 0 0 0 
0 0 0 0 0 0 0 0 0 
0 0 0 0 0 0 0 0 0 
0 0 0 0 0 0 0 0 0 
0 0 0 0 0 0 0 0 0 
0 0 0 0 0 0 0 0 0 
0 0 0 0 0 0 0 0 0 
0 0 0 0 0 0 0 0 0 
0 0 0 0 0 0 0 0 0 
0 0 0 0 0 0 0 0 0 
0 0 0 0 0 0 0 0 0 
0 0 0 0 0 0 0 0 0 
0 0 0 0 0 0 0 0 0 
0 0 0 0 0 0 0 0 0 
0 0 0 0 0 0 0 0 0 
0 0 0 0 0 0 0 0 0 
0 0 0 0 0 0 0 0 0 
0 0 0 0 0 0 0 0 0 
0 0 0 0 0 0 0 0 0 
0 0 0 0 0 0 0 0 0 
0 0 0 0 0 0 0 0 0 
0 0 0 0 0 0 0 0 0 
0 0 0 0 0 0 0 0 0 
0 0 0 0 0 0 0 0 0 
0 0 0 0 0 0 0 0 0 
0 0 0 0 0 0 0 0 0 
0 0 0 0 0 0 0 0 0 
0 0 0 0 0 0 0 0 0 
0 0 0 0 0 0 0 0 0 
0 0 0 0 0 0 0 0 0 
0 0 0 0 0 0 0 0 0 
0 0 0 0 0 0 0 0 0 
0 0 0 0 0 0 0 0 0 
0 0 0 0 0 0 0 0 0 
0 0 0 0 0 0 0 0 0 
0 0 0 0 0 0 0 0 0 
0 0 0 0 0 0 0 0 0 
0 0 0 0 0 0 0 0 0 
0 0 0 0 0 0 0 0 0 
0 0 0 0 0 0 0 0 0 
0 0 0 0 0 0 0 0 0 
0 0 0 0 0 0 0 0 0 
0 0 0 0 0 0 0 0 0 
0 0 0 0 0 0 0 0 0 
0 0 0 0 0 0 0 0 0 
0 0 0 0 0 0 0 0 0 
0 0 0 0 0 0 0 0 0 
0 0 0 0 0 0 0 0 0 
0 0 0 0 0 0 0 0 0 
0 0 0 0 0 0 0 0 0 
0 0 0 0 0 0 0 0 0 
0 0 0 0 0 0 0 0 0 
0 0 0 0 0 0 0 0 0 
0 0 0 0 0 0 0 0 0 
0 0 0 0 0 0 0 0 0 
0 0 0 0 0 0 0 0 0 
0 0 0 0 0 0 0 0 0 
0 0 0 0 0 0 0 0 0 
0 0 0 0 0 0 0 0 0 
0 0 0 0 0 0 0 0 0 
0 0 0 0 0 0 0 0 0 
0 0 0 0 0 0 0 0 0 
0 0 0 0 0 0 0 0 0 
0 0 0 0 0 0 0 0 0 
0 0 0 0 0 0 0 0 0 
0 9 9 9 1 1 1 1 1 
1 2 2 2 2 2 2 2 3 
3 3 3 3 3 5 5 5 5 
5 5 6 6 6 6 6 16 16 
16 16 16 16 7 7 7 7 0 
0 0 0 0 0 0 0 0 0 
0 0 0 0 0 0 0 0 0 
0 0 0 0 0 0 0 0 0 
0 0 0 0 0 0 0 0 0 
0 0 0 0 0 0 0 0 0 
0 0 0 0 0 0 0 0 0 
0 9 9 9 9 1 1 1 1 
1 1 2 2 2 2 2 2 2 
3 3 3 3 3 3 5 5 5 
5 5 6 6 6 6 6 6 16 
16 16 16 16 7 7 7 7 7 
17 0 0 0 0 0 0 0 0 
0 0 0 0 0 0 0 0 0 
0 0 0 0 0 0 0 0 0 
0 0 0 0 0 0 0 0 0 
0 0 0 0 0 0 0 0 0 
0 0 0 0 0 0 0 0 0 
0 9 9 9 9 9 1 1 1 
1 1 1 1 2 2 2 2 2 
2 3 3 3 3 3 3 5 5 
5 5 5 6 6 6 6 6 16 
16 16 16 16 7 7 7 7 7 
7 17 17 0 0 0 0 0 0 
0 0 0 0 0 0 0 0 0 
0 0 0 0 0 0 0 0 0 
0 0 0 0 0 0 0 0 0 
0 0 0 0 0 0 0 0 0 
0 0 0 0 0 0 0 0 0 
0 8 9 9 9 9 9 1 1 
1 1 1 1 1 2 2 2 2 
2 12 12 3 3 3 3 3 5 
5 5 5 5 6 6 6 6 6 
16 16 16 16 16 7 7 7 7 
7 7 17 17 17 0 0 0 0 
0 0 0 0 0 0 0 0 0 
0 0 0 0 0 0 0 0 0 
0 0 0 0 0 0 0 0 0 
0 0 0 0 0 0 0 0 0 
0 0 0 0 0 0 0 0 0 
0 8 8 8 9 9 9 11 11 
11 11 11 11 11 12 12 12 12 
12 12 12 12 3 3 3 3 14 
14 5 5 5 5 6 6 6 6 
6 16 16 16 16 16 7 7 7 
7 7 7 17 17 17 17 0 0 
0 0 0 0 0 0 0 0 0 
0 0 0 0 0 0 0 0 0 
0 0 0 0 0 0 0 0 0 
0 0 0 0 0 0 0 0 0 
0 0 0 0 0 0 0 0 0 
0 8 8 8 8 9 9 9 11 
11 11 11 11 11 11 12 12 12 
12 12 12 4 4 4 4 14 14 
14 14 14 14 14 15 15 15 15 
15 6 6 27 27 27 27 29 29 
29 29 29 7 17 17 17 17 30 
0 0 0 0 0 0 0 0 0 
0 0 0 0 0 0 0 0 0 
0 0 0 0 0 0 0 0 0 
0 0 0 0 0 0 0 0 0 
0 0 0 0 0 0 0 0 0 
0 8 8 8 8 8 8 9 9 
11 11 11 11 11 11 11 12 12 
12 12 12 12 4 4 4 4 4 
14 14 14 14 14 14 15 15 15 
15 15 15 15 27 27 27 27 29 
29 29 29 29 17 17 17 17 17 
30 30 0 0 0 0 0 0 0 
0 0 0 0 0 0 0 0 0 
0 0 0 0 0 0 0 0 0 
0 0 0 0 0 0 0 0 0 
0 0 0 0 0 0 0 0 0 
0 8 8 8 8 8 8 21 21 
21 11 11 11 11 11 11 11 12 
12 12 12 12 12 4 4 4 4 
4 14 14 14 14 14 14 15 15 
15 15 15 15 15 27 27 27 27 
29 29 29 29 29 17 17 17 17 
17 30 30 30 0 0 0 0 0 
0 0 0 0 0 0 0 0 0 
0 0 0 0 0 0 0 0 0 
0 0 0 0 0 0 0 0 0 
0 0 0 0 0 0 0 0 0 
0 20 20 8 8 8 8 21 21 
21 21 10 10 10 10 10 10 10 
24 24 24 24 24 4 4 4 4 
4 4 14 14 14 14 14 14 15 
15 15 15 15 15 15 27 27 27 
27 29 29 29 29 29 18 18 18 
18 18 30 30 30 30 0 0 0 
0 0 0 0 0 0 0 0 0 
0 0 0 0 0 0 0 0 0 
0 0 0 0 0 0 0 0 0 
0 0 0 0 0 0 0 0 0 
0 20 20 20 20 21 21 21 21 
21 21 21 10 10 10 10 10 10 
24 24 24 24 24 24 13 13 4 
4 4 4 14 25 25 25 25 26 
26 26 26 26 26 26 27 27 27 
27 27 27 29 29 29 29 18 18 
18 18 18 30 30 30 30 30 0 
0 0 0 0 0 0 0 0 0 
0 0 0 0 0 0 0 0 0 
0 0 0 0 0 0 0 0 0 
0 0 0 0 0 0 0 0 0 
0 20 20 20 20 20 20 21 21 
21 21 21 21 10 10 10 10 10 
10 24 24 24 24 24 24 13 13 
13 13 4 4 25 25 25 25 25 
26 26 26 26 26 26 40 40 40 
27 27 27 28 28 29 29 29 18 
18 18 18 18 30 30 30 30 30 
31 0 0 0 0 0 0 0 0 
0 0 0 0 0 0 0 0 0 
0 0 0 0 0 0 0 0 0 
0 0 0 0 0 0 0 0 0 
0 20 20 20 20 20 20 20 21 
21 21 21 21 21 10 10 10 10 
10 10 24 24 24 24 24 24 13 
13 13 13 13 13 25 25 25 25 
25 26 26 26 26 26 26 40 40 
40 27 27 28 28 28 28 28 28 
18 18 18 18 18 30 30 30 30 
30 31 44 0 0 0 0 0 0 
0 0 0 0 0 0 0 0 0 
0 0 0 0 0 0 0 0 0 
0 0 0 0 0 0 0 0 0 
0 32 20 20 20 20 20 20 20 
33 33 33 33 33 33 23 23 23 
23 23 23 22 22 22 24 24 24 
13 13 13 13 13 13 25 25 25 
25 25 26 26 26 26 26 26 40 
40 40 40 28 28 28 28 28 28 
28 18 18 43 43 43 43 31 31 
31 31 31 44 44 0 0 0 0 
0 0 0 0 0 0 0 0 0 
0 0 0 0 0 0 0 0 0 
0 0 0 0 0 0 0 0 0 
0 19 32 32 32 32 32 32 32 
33 33 33 33 33 33 33 23 23 
23 23 23 23 22 22 22 22 22 
13 13 13 13 13 13 13 25 25 
25 25 25 25 39 39 39 26 26 
40 40 40 40 28 28 28 28 28 
28 28 18 18 43 43 43 43 31 
31 31 31 44 44 44 44 0 0 
0 0 0 0 0 0 0 0 0 
0 0 0 0 0 0 0 0 0 
0 0 0 0 0 0 0 0 0 
0 19 19 32 32 32 32 32 32 
32 33 33 33 33 33 33 33 23 
23 23 23 23 23 22 22 22 22 
22 37 37 37 37 37 37 37 52 
52 52 52 52 52 39 39 39 39 
39 40 40 40 55 55 28 28 28 
28 28 18 18 18 43 43 43 43 
31 31 31 31 44 44 44 44 44 
0 0 0 0 0 0 0 0 0 
0 0 0 0 0 0 0 0 0 
0 0 0 0 0 0 0 0 0 
0 19 19 19 19 32 32 32 32 
32 32 33 33 33 33 33 33 33 
23 23 23 23 23 23 22 22 22 
22 22 37 37 37 37 37 37 37 
52 52 52 52 52 52 39 39 39 
39 39 40 40 40 55 55 55 55 
55 55 42 42 42 18 43 43 43 
43 31 31 31 31 44 44 44 44 
59 59 0 0 0 0 0 0 0 
0 0 0 0 0 0 0 0 0 
0 0 0 0 0 0 0 0 0 
0 19 19 19 19 19 32 32 32 
32 32 32 33 33 33 35 35 35 
35 34 34 34 23 23 23 22 22 
22 22 22 37 37 37 37 37 37 
37 52 52 52 52 52 52 39 39 
39 39 53 53 40 40 55 55 55 
55 55 55 42 42 42 42 43 43 
43 43 31 31 31 31 44 44 44 
44 59 59 59 0 0 0 0 0 
0 0 0 0 0 0 0 0 0 
0 0 0 0 0 0 0 0 0 
0 0 19 19 19 19 19 32 46 
46 46 46 46 35 35 35 35 35 
35 35 34 34 34 34 34 23 22 
22 22 22 22 37 37 37 37 37 
37 52 52 52 52 52 52 52 39 
39 39 53 53 53 54 54 54 54 
55 55 55 55 42 42 42 42 43 
43 43 43 31 31 31 31 44 44 
44 58 59 59 59 0 0 0 0 
0 0 0 0 0 0 0 0 0 
0 0 0 0 0 0 0 0 0 
0 0 0 19 19 19 19 19 45 
46 46 46 46 46 35 35 35 35 
35 35 35 34 34 34 34 34 34 
36 36 36 36 36 36 51 51 51 
51 51 51 52 52 52 52 38 38 
39 39 39 53 53 53 54 54 54 
54 55 55 55 55 42 42 42 42 
42 43 43 43 57 57 57 57 58 
58 58 58 59 59 59 0 0 0 
0 0 0 0 0 0 0 0 0 
0 0 0 0 0 0 0 0 0 
0 0 0 0 19 19 19 19 19 
45 46 46 46 46 46 35 35 35 
35 35 35 35 34 34 34 34 34 
36 36 36 36 36 36 36 51 51 
51 51 51 51 38 38 38 38 38 
38 53 53 53 53 53 54 54 54 
54 54 55 55 55 55 42 42 42 
42 42 56 56 56 57 57 57 57 
58 58 58 58 59 59 59 0 0 
0 0 0 0 0 0 0 0 0 
0 0 0 0 0 0 0 0 0 
0 0 0 0 0 45 45 45 45 
45 45 46 46 46 46 46 35 35 
47 47 47 47 47 34 34 34 34 
34 36 36 36 36 36 36 36 51 
51 51 51 51 51 38 38 38 38 
38 38 53 53 53 53 53 54 54 
54 54 54 55 55 55 55 42 42 
42 42 56 56 56 56 57 57 57 
57 58 58 58 58 59 59 59 0 
0 0 0 0 0 0 0 0 0 
0 0 0 0 0 0 0 0 0 