# vtk DataFile Version 5.1
vtk output
ASCII
DATASET STRUCTURED_POINTS
DIMENSIONS 100 100 1
SPACING 1 1 1
ORIGIN 0 0 0
POINT_DATA 10000
FIELD FieldData 3
CellType 1 10000 char
0 0 0 0 0 0 0 0 0 
0 0 0 0 0 0 0 0 0 
0 0 0 0 0 0 0 0 0 
0 0 0 0 0 0 0 0 0 
0 0 0 0 0 0 0 0 0 
0 0 0 0 0 0 0 0 0 
0 0 0 0 0 0 0 0 0 
0 0 0 0 0 0 0 0 0 
0 0 0 0 0 0 0 0 0 
0 0 0 0 0 0 0 0 0 
0 0 0 0 0 0 0 0 0 
0 0 0 0 0 0 0 0 0 
0 0 0 0 0 0 0 0 0 
0 0 0 0 0 0 0 0 0 
0 0 0 0 0 0 0 0 0 
0 0 0 0 0 0 0 0 0 
0 0 0 0 0 0 0 0 0 
0 0 0 0 0 0 0 0 0 
0 0 0 0 0 0 0 0 0 
0 0 0 0 0 0 0 0 0 
0 0 0 0 0 0 0 0 0 
0 0 0 0 0 0 0 0 0 
0 0 0 0 0 0 0 0 0 
0 0 0 0 0 0 0 0 0 
0 0 0 0 0 0 0 0 0 
0 0 0 0 0 0 0 0 0 
0 0 0 0 0 0 0 0 0 
0 0 0 0 0 0 0 0 0 
0 0 0 0 0 0 0 0 0 
0 0 0 0 0 0 0 0 0 
0 0 0 0 0 0 0 0 0 
0 0 0 0 0 0 0 0 0 
0 0 0 0 0 0 0 0 0 
0 0 0 0 0 0 0 0 0 
0 0 0 0 0 0 0 0 0 
0 0 0 0 0 0 0 0 0 
0 0 0 0 0 0 0 0 0 
0 0 0 0 0 0 0 0 0 
0 0 0 0 0 0 0 0 0 
0 0 0 0 0 0 0 0 0 
0 0 0 0 0 0 0 0 0 
0 0 0 0 0 0 0 0 0 
0 0 0 0 0 0 0 0 0 
0 0 0 0 0 0 0 0 0 
0 0 0 0 0 0 0 0 0 
0 0 0 0 0 0 0 0 0 
0 0 0 0 0 0 0 0 0 
0 0 0 0 0 0 0 0 0 
0 0 0 0 0 0 0 0 0 
0 0 0 0 0 0 0 0 0 
0 0 0 0 0 0 0 0 0 
0 0 0 0 0 0 0 0 0 
0 0 0 0 0 0 0 0 0 
0 0 0 0 0 0 0 0 0 
0 0 0 0 0 0 0 0 0 
0 0 0 0 0 0 0 0 0 
0 0 0 0 0 0 0 0 0 
0 0 0 0 0 0 0 0 0 
0 0 0 0 0 0 0 0 0 
0 0 0 0 0 0 0 0 0 
0 0 0 0 0 0 0 0 0 
0 0 0 0 0 0 0 0 0 
0 0 0 0 0 0 0 0 0 
0 0 0 0 0 0 0 0 0 
0 0 0 0 0 0 0 0 0 
0 0 0 0 0 0 0 0 0 
0 0 0 0 0 0 0 0 0 
0 0 0 0 0 0 0 0 0 
0 0 0 0 0 0 0 0 0 
0 0 0 0 0 0 0 0 0 
0 0 0 0 0 0 0 0 0 
0 0 0 0 0 0 0 0 0 
0 0 0 0 0 0 0 0 0 
0 0 0 0 0 0 0 0 0 
0 0 0 0 0 0 0 0 0 
0 0 0 0 0 0 0 0 0 
0 0 0 0 0 0 0 0 0 
0 0 0 0 0 0 0 0 0 
0 0 0 0 0 0 0 0 0 
0 0 0 0 0 0 0 0 0 
0 0 0 0 0 0 0 0 0 
0 0 0 0 0 0 0 0 0 
0 0 0 0 0 0 0 0 0 
0 0 0 0 0 0 0 0 0 
0 0 0 0 0 0 0 0 0 
0 0 0 0 0 0 0 0 0 
0 0 0 0 0 0 0 0 0 
0 0 0 0 0 0 0 0 0 
0 0 0 0 0 0 0 0 0 
0 0 0 0 0 0 0 0 0 
0 0 0 0 0 0 0 0 0 
0 0 0 0 0 0 0 0 0 
0 0 0 0 0 0 0 0 0 
0 0 0 0 0 0 0 0 0 
0 0 0 0 0 0 0 0 0 
0 0 0 0 0 0 0 0 0 
0 0 0 0 0 0 0 0 0 
0 0 0 0 0 0 0 0 0 
0 0 0 0 0 0 0 0 0 
0 0 0 0 0 0 0 0 0 
0 0 0 0 0 0 0 0 0 
0 0 0 0 0 0 0 0 0 
0 0 0 0 0 0 0 0 0 
0 0 0 0 0 0 0 0 0 
0 0 0 0 0 0 0 0 0 
0 0 0 0 0 0 0 0 0 
0 0 0 0 0 0 0 0 0 
0 0 0 0 0 0 0 0 0 
0 0 0 0 0 0 0 0 0 
0 0 0 0 0 0 0 0 0 
0 0 0 0 0 0 0 0 0 
0 0 0 0 0 0 0 0 0 
0 0 0 0 0 0 0 0 0 
0 0 0 0 0 0 0 0 0 
0 0 0 0 0 0 0 0 0 
0 0 0 0 0 0 0 0 0 
0 0 0 0 0 0 0 0 0 
0 0 0 0 0 0 0 0 0 
0 0 0 0 0 0 0 0 0 
0 0 0 0 0 0 0 0 0 
0 0 0 0 0 0 0 0 0 
0 0 0 0 0 0 0 0 0 
0 0 0 0 0 0 0 0 0 
0 0 0 0 0 0 0 0 0 
0 0 0 0 0 0 0 0 0 
0 0 0 0 0 0 0 0 0 
0 0 0 0 0 0 0 0 0 
0 0 0 0 0 0 0 0 0 
0 0 0 0 0 0 0 0 0 
0 0 0 0 0 0 0 0 0 
0 0 0 0 0 0 0 0 0 
0 0 0 0 0 0 0 0 0 
0 0 0 0 0 0 0 0 0 
0 0 0 0 0 0 0 0 0 
0 0 0 0 0 0 0 0 0 
0 0 0 0 0 0 0 0 0 
0 0 0 0 0 0 0 0 0 
0 0 0 0 0 0 0 0 0 
0 0 0 0 0 0 0 0 0 
0 0 0 0 0 0 0 0 0 
0 0 0 0 0 0 0 0 0 
0 0 0 0 0 0 0 0 0 
0 0 0 0 0 0 0 0 0 
0 0 0 0 0 0 0 0 0 
0 0 0 0 0 0 0 0 0 
0 0 0 0 0 0 0 0 0 
0 0 0 0 0 0 0 0 0 
0 0 0 0 0 0 0 0 0 
0 0 0 0 0 0 0 0 0 
0 0 0 0 0 0 0 0 0 
0 0 0 0 0 0 0 0 0 
0 0 0 0 0 0 0 0 0 
0 0 0 0 0 0 0 0 0 
0 0 0 0 0 0 0 0 0 
0 0 0 0 0 0 0 0 0 
0 0 0 0 0 0 0 0 0 
0 0 0 0 0 0 0 0 0 
0 0 0 0 0 0 0 0 0 
0 0 0 0 0 0 0 0 0 
0 0 0 0 0 0 0 0 0 
0 0 0 0 0 0 0 0 0 
0 0 0 0 0 0 0 0 0 
0 0 0 0 0 0 0 0 0 
0 0 0 0 0 0 0 0 0 
0 0 0 0 0 0 0 0 0 
0 0 0 0 0 0 0 0 0 
0 0 0 0 0 0 0 0 0 
0 0 0 0 0 0 0 0 0 
0 0 0 0 0 0 0 0 0 
0 0 0 0 0 0 0 0 0 
0 1 1 1 1 1 2 2 2 
2 2 2 2 1 1 1 1 1 
2 2 2 2 2 2 1 1 1 
1 1 1 1 1 2 2 2 2 
2 2 2 1 1 1 1 1 0 
0 0 0 0 0 0 0 0 0 
0 0 0 0 0 0 0 0 0 
0 0 0 0 0 0 0 0 0 
0 0 0 0 0 0 0 0 0 
0 0 0 0 0 0 0 0 0 
0 0 0 0 0 0 0 0 0 
0 1 1 1 1 1 1 2 2 
2 2 2 2 2 1 1 1 1 
1 2 2 2 2 2 2 1 1 
1 1 1 1 1 1 2 2 2 
2 2 2 2 1 1 1 1 1 
1 0 0 0 0 0 0 0 0 
0 0 0 0 0 0 0 0 0 
0 0 0 0 0 0 0 0 0 
0 0 0 0 0 0 0 0 0 
0 0 0 0 0 0 0 0 0 
0 0 0 0 0 0 0 0 0 
0 2 1 1 1 1 1 1 2 
2 2 2 2 2 2 1 1 1 
1 1 2 2 2 2 2 2 1 
1 1 1 1 1 1 1 2 2 
2 2 2 2 2 1 1 1 1 
1 1 1 0 0 0 0 0 0 
0 0 0 0 0 0 0 0 0 
0 0 0 0 0 0 0 0 0 
0 0 0 0 0 0 0 0 0 
0 0 0 0 0 0 0 0 0 
0 0 0 0 0 0 0 0 0 
0 2 2 1 1 1 1 1 1 
2 2 2 2 2 2 2 1 1 
1 1 1 2 2 2 2 2 2 
1 2 2 2 2 2 2 1 2 
2 2 2 2 2 2 1 1 1 
1 1 1 1 1 0 0 0 0 
0 0 0 0 0 0 0 0 0 
0 0 0 0 0 0 0 0 0 
0 0 0 0 0 0 0 0 0 
0 0 0 0 0 0 0 0 0 
0 0 0 0 0 0 0 0 0 
0 2 2 2 1 1 1 2 2 
2 1 1 1 1 1 2 2 1 
1 1 1 1 1 2 2 2 2 
2 1 2 2 2 2 2 2 1 
2 2 1 1 1 1 1 1 2 
2 2 2 2 2 2 2 0 0 
0 0 0 0 0 0 0 0 0 
0 0 0 0 0 0 0 0 0 
0 0 0 0 0 0 0 0 0 
0 0 0 0 0 0 0 0 0 
0 0 0 0 0 0 0 0 0 
0 2 2 2 2 1 1 2 2 
2 2 1 1 1 1 1 1 2 
1 1 2 2 2 2 2 1 1 
1 1 1 2 2 2 2 2 1 
1 1 1 1 1 1 1 1 1 
2 2 2 2 2 2 1 1 1 
0 0 0 0 0 0 0 0 0 
0 0 0 0 0 0 0 0 0 
0 0 0 0 0 0 0 0 0 
0 0 0 0 0 0 0 0 0 
0 0 0 0 0 0 0 0 0 
0 2 2 2 2 2 1 2 2 
2 2 2 1 1 1 1 1 1 
2 1 2 2 2 2 2 2 1 
1 1 1 1 2 2 2 2 1 
1 1 1 2 1 1 1 1 1 
1 2 2 2 2 2 2 1 1 
2 2 0 0 0 0 0 0 0 
0 0 0 0 0 0 0 0 0 
0 0 0 0 0 0 0 0 0 
0 0 0 0 0 0 0 0 0 
0 0 0 0 0 0 0 0 0 
0 2 2 2 2 2 2 1 2 
2 2 2 2 1 1 1 1 1 
1 2 1 2 2 2 2 2 2 
1 1 1 1 1 2 2 2 1 
1 1 1 1 2 2 2 2 1 
1 1 2 2 2 2 2 1 1 
1 2 2 2 0 0 0 0 0 
0 0 0 0 0 0 0 0 0 
0 0 0 0 0 0 0 0 0 
0 0 0 0 0 0 0 0 0 
0 0 0 0 0 0 0 0 0 
0 2 2 2 2 2 2 1 1 
2 2 2 2 2 1 1 1 1 
2 2 2 1 2 2 2 2 2 
2 1 1 1 1 1 1 2 1 
1 1 1 1 1 2 2 2 2 
2 2 1 2 2 2 2 2 1 
1 1 2 2 2 2 0 0 0 
0 0 0 0 0 0 0 0 0 
0 0 0 0 0 0 0 0 0 
0 0 0 0 0 0 0 0 0 
0 0 0 0 0 0 0 0 0 
0 1 1 1 1 1 1 1 1 
1 2 2 2 2 2 1 2 2 
2 2 2 2 1 1 2 2 2 
2 2 1 1 1 1 1 1 2 
1 1 1 1 1 1 2 2 2 
2 2 2 1 1 1 1 1 1 
1 1 1 2 2 2 2 2 0 
0 0 0 0 0 0 0 0 0 
0 0 0 0 0 0 0 0 0 
0 0 0 0 0 0 0 0 0 
0 0 0 0 0 0 0 0 0 
0 1 1 1 1 1 2 2 2 
2 2 1 1 1 1 1 1 2 
2 2 2 2 2 1 1 1 1 
1 1 1 2 2 2 2 2 1 
2 2 2 2 2 2 1 2 2 
2 2 2 1 1 1 1 2 2 
2 1 1 1 2 2 2 2 2 
2 0 0 0 0 0 0 0 0 
0 0 0 0 0 0 0 0 0 
0 0 0 0 0 0 0 0 0 
0 0 0 0 0 0 0 0 0 
0 2 1 1 1 1 1 2 2 
2 2 2 1 1 1 1 1 1 
2 2 2 2 2 2 1 1 1 
1 1 1 1 2 2 2 2 2 
1 2 2 2 2 2 2 1 2 
2 2 2 1 1 1 1 1 2 
2 2 1 1 1 2 2 2 2 
1 1 1 0 0 0 0 0 0 
0 0 0 0 0 0 0 0 0 
0 0 0 0 0 0 0 0 0 
0 0 0 0 0 0 0 0 0 
0 2 2 2 1 1 1 2 2 
2 2 2 2 1 1 1 1 1 
1 2 2 2 2 2 2 1 1 
1 1 1 1 1 2 2 2 2 
2 1 2 2 2 2 2 2 1 
1 2 2 2 1 1 1 1 2 
2 2 2 1 1 1 2 1 1 
1 1 1 1 1 0 0 0 0 
0 0 0 0 0 0 0 0 0 
0 0 0 0 0 0 0 0 0 
0 0 0 0 0 0 0 0 0 
0 2 2 2 2 2 2 2 2 
2 2 2 2 2 1 1 1 1 
1 1 2 2 1 1 1 1 1 
1 1 1 1 1 1 2 2 2 
2 2 1 2 2 2 2 2 1 
1 1 1 1 2 1 1 1 1 
2 2 2 2 1 1 1 2 1 
1 1 1 1 1 2 2 0 0 
0 0 0 0 0 0 0 0 0 
0 0 0 0 0 0 0 0 0 
0 0 0 0 0 0 0 0 0 
0 2 2 2 2 2 2 2 1 
1 1 1 1 1 1 2 2 2 
2 1 1 2 1 1 1 1 2 
2 2 2 2 2 2 1 2 2 
2 2 1 1 1 1 2 1 1 
1 1 1 1 1 2 1 1 1 
1 2 2 2 2 1 2 2 2 
1 1 1 1 2 2 2 2 1 
0 0 0 0 0 0 0 0 0 
0 0 0 0 0 0 0 0 0 
0 0 0 0 0 0 0 0 0 
0 0 2 2 2 2 2 2 2 
1 1 1 1 1 1 1 2 2 
2 2 1 1 1 1 1 1 1 
2 2 2 1 1 1 2 2 1 
1 1 1 1 1 1 1 2 1 
1 1 1 1 1 2 2 2 2 
2 1 2 2 2 2 2 2 2 
2 1 1 1 2 2 2 2 2 
1 1 0 0 0 0 0 0 0 
0 0 0 0 0 0 0 0 0 
0 0 0 0 0 0 0 0 0 
0 0 0 2 2 2 2 2 2 
2 1 1 1 1 1 1 1 2 
2 2 2 1 2 2 1 1 1 
1 2 2 2 1 1 1 1 2 
1 1 1 1 1 1 1 2 2 
2 2 2 1 1 1 2 2 2 
2 2 1 2 2 2 1 2 2 
2 2 1 1 1 2 2 2 2 
1 1 1 1 0 0 0 0 0 
0 0 0 0 0 0 0 0 0 
0 0 0 0 0 0 0 0 0 
0 0 0 0 1 1 1 1 1 
1 2 2 1 1 1 1 1 2 
2 2 2 2 1 2 2 2 1 
1 1 2 2 2 1 1 1 1 
1 1 1 1 1 1 1 2 2 
2 2 2 2 2 1 1 2 2 
2 2 2 1 1 1 1 1 2 
2 2 2 2 1 2 2 2 2 
2 1 1 1 1 0 0 0 0 
0 0 0 0 0 0 0 0 0 
0 0 0 0 0 0 0 0 0 
0 0 0 0 2 2 1 1 1 
1 1 1 1 1 2 2 1 1 
2 2 2 2 1 1 2 2 2 
2 2 1 2 2 2 1 1 1 
1 2 2 2 2 2 2 1 2 
2 2 2 2 2 2 2 2 2 
2 2 2 2 1 1 1 1 1 
2 2 2 2 2 1 2 2 2 
1 1 1 1 1 1 0 0 0 
0 0 0 0 0 0 0 0 0 
0 0 0 0 0 0 0 0 0 
0 0 0 0 2 2 2 2 2 
2 1 1 1 1 1 2 2 2 
2 1 1 1 1 1 2 2 2 
2 2 2 1 2 2 2 1 2 
2 2 2 2 2 2 2 2 1 
2 2 2 2 2 2 1 1 1 
1 1 2 2 2 1 1 1 1 
1 2 2 2 2 2 1 1 2 
2 1 1 1 1 1 1 0 0 
0 0 0 0 0 0 0 0 0 
0 0 0 0 0 0 0 0 0 
0 0 0 0 0 2 2 2 2 
2 2 2 2 2 1 1 2 2 
2 2 1 1 1 1 1 2 2 
2 2 2 1 1 1 1 2 1 
1 1 1 1 1 2 2 2 2 
1 1 1 1 1 1 2 1 1 
1 1 1 1 2 2 1 1 1 
1 1 2 2 1 1 1 1 1 
1 2 1 1 2 2 2 2 0 
0 0 0 0 0 0 0 0 0 
0 0 0 0 0 0 0 0 0 
0 0 0 0 0 0 2 2 2 
2 2 2 2 2 2 1 1 2 
2 2 2 1 1 1 1 1 2 
2 2 2 2 1 1 1 1 2 
1 1 1 1 1 1 2 2 2 
2 1 1 1 1 1 2 2 2 
2 1 1 1 1 1 1 1 1 
1 1 1 1 1 1 1 1 1 
1 1 2 1 2 2 2 2 2 
0 0 0 0 0 0 0 0 0 
0 0 0 0 0 0 0 0 0 
0 0 0 0 0 0 0 1 1 
1 1 1 1 1 1 2 1 1 
2 2 2 2 1 1 1 1 1 
1 1 1 1 2 1 1 1 1 
2 1 1 1 1 1 1 2 2 
1 2 1 1 1 1 1 2 2 
2 2 1 1 1 1 2 2 2 
2 2 1 2 2 2 1 1 1 
1 1 2 2 1 2 2 2 2 
2 0 0 0 0 0 0 0 0 
0 0 0 0 0 0 0 0 0 
0 0 0 0 0 0 0 0 1 
1 1 1 1 1 1 1 2 1 
1 2 2 2 2 2 1 1 1 
2 1 1 1 1 2 1 1 1 
1 2 1 1 1 1 1 1 2 
1 1 2 2 2 1 1 1 2 
2 2 2 1 1 1 2 2 2 
2 2 2 1 2 2 2 1 1 
1 1 1 2 2 1 2 2 2 
2 2 0 0 0 0 0 0 0 
0 0 0 0 0 0 0 0 0 
0 0 0 0 0 0 0 0 0 
1 1 1 1 1 1 1 2 2 
1 1 2 2 2 2 2 2 1 
2 2 1 1 1 1 1 1 1 
1 2 2 2 2 2 2 2 1 
1 1 2 2 2 2 2 1 1 
2 2 2 2 1 1 2 2 2 
2 2 1 1 1 2 2 2 2 
1 2 2 2 2 2 1 1 2 
2 2 2 0 0 0 0 0 0 
0 0 0 0 0 0 0 0 0 
0 0 0 0 0 0 0 0 0 
0 2 2 2 2 2 2 2 2 
2 1 1 2 1 1 1 1 1 
1 2 2 1 1 1 1 2 2 
1 2 2 2 2 2 2 2 2 
1 1 1 2 2 2 2 2 1 
1 1 2 1 1 1 1 2 2 
2 2 2 1 1 1 2 2 2 
2 1 2 2 2 2 2 1 1 
1 2 2 2 0 0 0 0 0 
0 0 0 0 0 0 0 0 0 
0 0 0 0 0 0 0 0 0 
0 0 2 2 2 2 2 2 2 
2 2 2 2 2 2 2 1 1 
1 1 2 2 1 1 1 1 2 
2 1 2 2 2 2 2 2 2 
1 1 1 1 2 2 2 2 2 
1 1 1 2 2 2 2 2 2 
2 2 2 2 1 1 1 2 2 
1 1 1 1 2 2 2 2 1 
1 1 1 1 2 0 0 0 0 
0 0 0 0 0 0 0 0 0 
0 0 0 0 0 0 0 0 0 
0 0 0 2 2 2 2 2 2 
2 1 1 2 2 2 2 2 1 
1 1 1 2 2 2 2 2 2 
2 1 1 1 1 1 1 1 1 
1 1 1 1 1 2 2 2 2 
2 2 2 2 2 2 2 1 1 
1 1 1 1 1 1 1 1 2 
2 1 1 1 1 2 2 2 2 
1 1 1 1 1 1 0 0 0 
0 0 0 0 0 0 0 0 0 
0 0 0 0 0 0 0 0 0 
0 0 0 0 1 1 1 1 1 
1 1 1 1 2 2 2 2 2 
1 1 1 1 2 2 2 2 2 
2 1 1 1 1 1 1 1 2 
2 2 1 1 1 1 2 1 1 
1 1 1 2 2 2 2 2 1 
1 1 1 1 2 2 1 1 1 
2 2 1 1 1 1 2 2 2 
2 1 1 1 1 1 1 0 0 
0 0 0 0 0 0 0 0 0 
0 0 0 0 0 0 0 0 0 
0 0 0 0 0 1 1 1 1 
1 1 1 1 1 1 2 2 2 
2 1 1 1 1 2 2 2 2 
2 2 1 1 1 1 1 1 2 
2 2 2 1 1 2 2 2 2 
1 1 1 1 2 2 2 2 2 
1 1 1 1 1 2 2 1 1 
1 2 2 1 1 1 1 2 1 
1 1 1 2 2 2 2 2 0 
0 0 0 0 0 0 0 0 0 
0 0 0 0 0 0 0 0 0 
0 0 0 0 0 0 1 1 1 
1 1 1 1 1 2 2 2 1 
1 1 1 2 2 2 2 1 1 
1 1 1 2 2 2 2 1 1 
2 2 2 2 1 1 2 2 2 
2 1 1 1 1 2 2 2 2 
2 1 1 1 1 1 2 2 1 
1 1 2 2 1 1 1 1 1 
1 1 1 1 2 2 2 2 2 
0 0 0 0 0 0 0 0 0 
0 0 0 0 0 0 0 0 0 
0 0 0 0 0 0 0 1 2 
2 2 2 1 1 2 2 2 2 
2 2 1 1 2 2 2 2 1 
1 1 1 1 2 2 2 2 1 
1 2 2 2 2 2 2 2 2 
2 2 1 1 1 1 2 2 2 
2 2 1 2 2 2 2 2 2 
2 2 1 2 2 1 1 1 2 
2 1 1 1 1 2 2 2 2 
2 0 0 0 0 0 0 0 0 
0 0 0 0 0 0 0 0 0 
0 0 0 0 0 0 0 0 1 
1 1 2 2 2 1 2 2 2 
2 2 2 2 2 2 2 2 2 
1 1 1 1 1 2 2 2 2 
2 2 2 2 2 2 1 1 2 
2 2 2 1 1 1 1 2 1 
1 1 1 1 2 2 2 2 2 
2 2 2 1 2 2 1 1 2 
2 2 1 1 1 1 2 2 2 
2 2 0 0 0 0 0 0 0 
0 0 0 0 0 0 0 0 0 
0 0 0 0 0 0 0 0 0 
1 1 1 2 2 2 1 2 2 
2 2 2 2 1 1 2 2 2 
2 1 1 1 1 1 2 2 2 
2 1 1 1 1 1 1 1 1 
2 2 2 2 1 1 1 1 2 
1 1 1 1 1 1 1 2 2 
2 2 2 1 1 1 1 2 2 
2 2 2 1 1 1 1 2 2 
2 2 2 0 0 0 0 0 0 
0 0 0 0 0 0 0 0 0 
0 0 0 0 0 0 0 0 0 
0 1 1 1 2 2 2 1 1 
1 1 1 1 2 1 1 2 2 
2 2 1 1 1 1 1 2 2 
2 2 1 1 1 1 1 1 1 
1 1 1 1 1 1 1 1 2 
2 1 1 1 1 1 1 1 1 
1 1 1 1 1 1 1 1 2 
2 2 2 2 2 2 1 2 2 
2 2 2 2 0 0 0 0 0 
0 0 0 0 0 0 0 0 0 
0 0 0 0 0 0 0 0 0 
0 0 1 1 1 2 2 2 1 
1 1 1 2 2 2 2 1 1 
1 2 1 1 1 1 1 1 1 
1 1 1 1 1 1 1 1 1 
1 1 2 2 2 2 2 2 1 
2 2 2 1 1 1 1 2 2 
2 2 2 1 1 1 1 1 1 
2 2 2 2 2 2 2 1 1 
1 1 1 1 1 0 0 0 0 
0 0 0 0 0 0 0 0 0 
0 0 0 0 0 0 0 0 0 
0 0 0 1 1 1 2 2 2 
1 1 1 1 2 2 2 2 2 
1 1 2 2 2 2 2 2 2 
2 2 2 2 2 2 2 2 2 
2 1 2 2 2 2 2 2 2 
1 2 2 2 1 1 1 2 2 
2 2 2 2 1 1 1 1 1 
1 2 2 2 2 2 2 1 1 
1 1 2 2 2 2 0 0 0 
0 0 0 0 0 0 0 0 0 
0 0 0 0 0 0 0 0 0 
0 0 0 0 1 1 1 2 2 
2 1 1 1 1 2 2 2 2 
2 1 1 2 2 2 2 1 1 
2 2 2 2 1 2 2 2 2 
2 2 1 2 2 2 2 2 2 
1 1 2 2 2 2 2 2 2 
2 2 2 2 2 1 2 2 2 
2 2 1 1 1 1 1 2 1 
1 1 1 2 2 2 2 0 0 
0 0 0 0 0 0 0 0 0 
0 0 0 0 0 0 0 0 0 
0 0 0 0 0 2 2 2 2 
2 2 1 1 1 1 2 2 2 
2 2 1 1 2 2 2 2 1 
1 2 2 2 2 1 2 2 2 
2 2 2 1 2 2 2 2 2 
2 1 1 2 2 2 2 1 1 
1 1 2 2 2 2 1 2 2 
2 2 2 1 1 1 1 1 2 
1 1 1 1 2 2 2 2 0 
0 0 0 0 0 0 0 0 0 
0 0 0 0 0 0 0 0 0 
0 0 0 0 0 0 1 1 1 
1 1 1 1 1 1 1 1 1 
1 2 1 1 1 2 2 2 2 
1 1 2 2 2 2 1 1 1 
1 1 1 1 1 1 2 1 1 
1 1 1 1 2 2 2 2 1 
1 1 1 1 1 2 1 1 2 
2 2 2 2 1 1 1 2 2 
2 1 1 1 1 2 2 2 2 
0 0 0 0 0 0 0 0 0 
0 0 0 0 0 0 0 0 0 
0 0 0 0 0 0 0 1 1 
1 1 1 2 2 2 2 2 2 
2 2 2 1 1 1 2 2 2 
1 1 1 2 2 2 2 1 1 
1 1 1 1 1 1 1 2 1 
1 1 1 1 1 1 2 1 1 
1 1 1 1 1 1 2 1 1 
2 2 2 2 2 1 1 1 2 
2 2 1 1 1 1 1 1 1 
2 0 0 0 0 0 0 0 0 
0 0 0 0 0 0 0 0 0 
0 0 0 0 0 0 0 0 1 
1 1 1 1 2 1 1 2 2 
2 2 2 2 1 1 1 2 2 
1 1 1 1 2 2 2 2 1 
1 1 1 1 1 1 2 2 2 
2 1 1 1 1 1 1 2 1 
1 1 1 2 2 2 2 2 1 
1 1 2 2 2 2 1 1 1 
2 2 2 2 2 2 2 2 2 
2 2 0 0 0 0 0 0 0 
0 0 0 0 0 0 0 0 0 
0 0 0 0 0 0 0 0 0 
1 1 1 1 1 2 1 1 1 
2 2 2 2 2 1 1 1 2 
1 1 1 1 1 1 2 1 1 
2 2 2 2 2 2 1 2 2 
2 2 2 2 1 1 1 2 2 
2 1 1 1 2 2 2 2 2 
1 1 1 1 1 2 1 1 1 
1 2 2 2 1 1 2 2 2 
2 2 2 0 0 0 0 0 0 
0 0 0 0 0 0 0 0 0 
0 0 0 0 0 0 0 0 0 
0 1 1 1 1 1 2 1 1 
1 1 2 2 2 2 1 1 1 
2 1 1 1 1 1 1 2 1 
1 2 2 2 2 2 2 1 2 
2 2 2 2 2 1 1 2 2 
2 2 2 1 1 2 2 2 2 
2 1 1 1 1 1 2 1 1 
1 1 2 2 2 1 1 2 2 
2 2 2 2 0 0 0 0 0 
0 0 0 0 0 0 0 0 0 
0 0 0 0 0 0 0 0 0 
0 0 2 2 2 2 2 2 1 
1 1 1 1 2 2 2 2 2 
2 2 2 1 2 2 2 2 2 
1 1 2 2 2 2 2 1 1 
2 2 2 2 2 2 2 2 2 
2 2 2 2 2 2 2 2 2 
2 2 1 1 1 1 2 2 2 
2 1 1 2 2 2 1 1 2 
2 2 2 2 2 0 0 0 0 
0 0 0 0 0 0 0 0 0 
0 0 0 0 0 0 0 0 0 
0 0 0 2 2 2 2 2 2 
1 1 1 1 1 2 2 1 1 
1 2 2 2 1 2 2 2 2 
2 1 1 2 2 2 2 2 1 
1 1 1 1 1 1 2 1 1 
2 2 2 2 2 1 1 1 1 
1 2 1 1 1 1 1 2 2 
2 2 2 1 2 2 2 1 1 
1 1 1 1 1 1 0 0 0 
0 0 0 0 0 0 0 0 0 
0 0 0 0 0 0 0 0 0 
0 0 0 0 2 2 2 2 2 
2 1 1 1 1 1 1 1 1 
1 1 2 2 2 1 2 2 2 
2 2 1 1 1 2 2 2 2 
1 1 1 1 1 1 1 2 1 
1 1 1 2 2 2 1 1 1 
1 1 2 2 2 2 2 1 2 
2 2 2 2 2 2 2 2 1 
1 1 1 1 1 2 2 0 0 
0 0 0 0 0 0 0 0 0 
0 0 0 0 0 0 0 0 0 
0 0 0 0 0 1 1 2 2 
2 2 1 2 2 2 2 2 2 
1 1 1 2 2 2 1 1 2 
2 2 2 1 1 1 1 1 2 
1 1 1 1 1 2 2 2 2 
1 1 1 1 1 1 2 1 1 
1 1 1 2 2 2 2 2 2 
2 2 2 2 2 1 1 1 1 
1 1 1 1 2 2 2 2 0 
0 0 0 0 0 0 0 0 0 
0 0 0 0 0 0 0 0 0 
0 0 0 0 0 0 1 1 1 
2 2 1 1 1 2 2 2 2 
2 1 1 1 2 2 2 1 1 
1 1 2 2 1 1 1 1 1 
2 1 1 1 1 2 2 2 2 
2 1 1 1 1 1 1 2 1 
1 1 1 1 2 2 2 2 2 
1 1 1 1 1 1 1 1 2 
2 2 2 2 1 2 2 2 2 
0 0 0 0 0 0 0 0 0 
0 0 0 0 0 0 0 0 0 
0 0 0 0 0 0 0 1 1 
1 1 1 1 1 1 1 2 2 
2 2 1 1 1 2 2 2 1 
1 1 1 1 2 1 1 1 2 
2 2 2 2 1 1 2 2 2 
2 2 1 1 1 1 1 1 2 
2 2 2 1 1 2 2 2 2 
2 1 1 1 1 1 1 1 1 
2 2 2 2 2 1 2 2 2 
2 0 0 0 0 0 0 0 0 
0 0 0 0 0 0 0 0 0 
0 0 0 0 0 0 0 0 1 
1 1 2 2 1 1 1 1 2 
2 2 2 1 1 1 2 2 2 
1 1 1 1 1 2 1 1 1 
2 2 2 2 2 2 2 2 2 
2 2 2 1 1 1 1 1 1 
2 2 2 2 1 1 1 1 1 
1 2 1 1 1 1 1 1 1 
1 2 2 2 2 2 1 2 2 
2 2 0 0 0 0 0 0 0 
0 0 0 0 0 0 0 0 0 
0 0 0 0 0 0 0 0 0 
1 1 1 2 2 1 1 1 1 
2 2 2 2 1 1 1 2 2 
1 1 1 2 2 2 2 2 1 
1 2 2 2 2 2 1 1 1 
1 1 1 1 2 2 2 2 2 
1 2 2 2 2 1 2 2 2 
2 2 2 2 2 2 1 1 2 
2 2 1 1 1 2 2 1 2 
2 2 2 0 0 0 0 0 0 
0 0 0 0 0 0 0 0 0 
0 0 0 0 0 0 0 0 0 
0 1 1 1 2 2 1 1 1 
2 2 2 2 2 1 1 1 2 
2 1 1 1 2 2 2 2 2 
2 2 2 2 2 2 2 1 1 
1 1 1 1 1 2 2 2 2 
2 1 2 2 2 2 1 2 2 
2 2 1 2 2 2 2 1 1 
2 2 2 1 1 1 2 2 1 
2 2 2 2 0 0 0 0 0 
0 0 0 0 0 0 0 0 0 
0 0 0 0 0 0 0 0 0 
0 0 1 1 1 2 2 2 2 
1 1 1 1 1 1 2 2 1 
1 1 1 1 2 2 2 2 2 
2 1 1 1 1 1 1 2 1 
1 1 1 1 1 1 2 2 2 
2 2 1 2 2 2 2 1 2 
2 2 2 1 2 2 2 2 2 
2 2 2 2 1 1 1 2 2 
1 1 1 1 1 0 0 0 0 
0 0 0 0 0 0 0 0 0 
0 0 0 0 0 0 0 0 0 
0 0 0 1 1 1 2 2 2 
2 1 1 1 1 1 1 2 2 
2 2 2 2 2 2 2 2 2 
2 1 1 1 1 1 1 2 2 
2 2 1 1 1 1 1 2 2 
2 2 2 2 2 2 2 2 2 
2 2 2 2 1 2 2 2 2 
1 2 2 2 2 1 1 1 2 
2 1 1 1 1 1 0 0 0 
0 0 0 0 0 0 0 0 0 
0 0 0 0 0 0 0 0 0 
0 0 0 0 2 2 2 2 2 
2 2 1 1 1 1 1 1 2 
2 2 2 2 1 1 1 1 1 
2 1 1 1 1 1 1 1 2 
2 2 2 1 2 2 2 2 2 
1 1 1 1 1 1 1 2 1 
1 2 2 2 2 1 1 1 1 
1 1 2 2 2 2 1 1 1 
2 2 1 1 1 1 1 0 0 
0 0 0 0 0 0 0 0 0 
0 0 0 0 0 0 0 0 0 
0 0 0 0 0 2 2 2 2 
2 2 2 1 1 1 1 1 1 
2 2 2 2 2 1 1 1 1 
1 2 1 1 2 2 2 2 1 
2 2 2 2 1 2 2 2 2 
2 1 1 1 1 2 2 2 2 
1 1 1 1 2 1 1 1 1 
1 1 1 2 2 2 2 1 1 
1 1 1 1 1 1 1 1 0 
0 0 0 0 0 0 0 0 0 
0 0 0 0 0 0 0 0 0 
0 0 0 0 0 0 1 1 1 
1 1 1 1 1 2 2 2 2 
1 2 2 2 2 2 1 1 1 
2 2 2 1 2 2 2 2 2 
1 2 2 2 2 1 2 2 2 
2 2 1 1 1 1 2 2 2 
2 2 1 1 1 2 1 1 1 
1 1 1 1 2 2 2 2 1 
1 1 2 2 2 1 1 1 1 
0 0 0 0 0 0 0 0 0 
0 0 0 0 0 0 0 0 0 
0 0 0 0 0 0 0 1 1 
1 1 1 1 1 1 1 2 2 
2 1 1 1 1 2 2 1 1 
1 2 2 2 1 2 2 2 2 
2 2 2 2 2 2 1 2 2 
2 2 2 1 1 1 1 2 2 
2 2 2 1 1 2 2 2 2 
1 1 2 2 2 1 1 1 1 
2 2 2 2 2 2 2 2 2 
0 0 0 0 0 0 0 0 0 
0 0 0 0 0 0 0 0 0 
0 0 0 0 0 0 0 0 0 
1 1 1 1 1 1 1 1 2 
2 2 1 1 1 1 1 2 1 
1 1 2 2 2 1 2 2 2 
2 2 2 2 2 2 2 1 2 
1 1 1 1 1 1 1 1 2 
2 2 2 2 1 1 2 2 2 
2 1 1 2 2 2 1 1 1 
1 2 2 2 2 2 2 2 2 
2 0 0 0 0 0 0 0 0 
0 0 0 0 0 0 0 0 0 
0 0 0 0 0 0 0 0 0 
0 0 2 2 2 2 2 2 1 
2 2 2 1 1 1 1 1 1 
1 1 1 2 2 2 1 2 2 
2 2 2 1 1 2 1 1 1 
2 2 2 2 1 1 1 1 1 
2 2 2 2 2 1 1 2 2 
2 2 2 2 2 2 2 1 1 
1 1 2 2 2 2 2 2 2 
2 0 0 0 0 0 0 0 0 
0 0 0 0 0 0 0 0 0 
0 0 0 0 0 0 0 0 0 
0 0 0 0 2 2 2 2 2 
1 2 2 2 1 1 1 1 1 
2 2 2 1 1 1 2 1 1 
2 1 1 1 1 1 2 2 2 
2 2 2 2 2 2 2 2 2 
2 2 1 1 1 1 1 1 2 
2 2 2 1 2 2 2 2 1 
1 1 1 2 1 1 1 1 1 
1 0 0 0 0 0 0 0 0 
0 0 0 0 0 0 0 0 0 
0 0 0 0 0 0 0 0 0 
0 0 0 0 0 0 2 2 2 
2 1 2 2 2 1 1 1 1 
1 2 2 2 2 2 2 2 1 
1 2 1 1 1 1 1 2 2 
2 1 2 2 2 2 1 2 2 
2 2 2 1 1 1 1 1 1 
1 2 2 2 1 2 2 2 2 
1 1 1 1 1 1 1 1 1 
1 0 0 0 0 0 0 0 0 
0 0 0 0 0 0 0 0 0 
0 0 0 0 0 0 0 0 0 
0 0 0 0 0 0 0 0 2 
2 2 2 2 2 2 2 2 2 
2 2 2 2 2 2 2 2 2 
2 2 2 2 2 2 1 1 2 
2 2 1 2 2 2 2 1 2 
2 2 2 2 2 2 2 2 2 
2 2 2 1 1 1 2 2 2 
2 1 1 1 2 1 1 1 1 
1 0 0 0 0 0 0 0 0 
0 0 0 0 0 0 0 0 0 
0 0 0 0 0 0 0 0 0 
0 0 0 0 0 0 0 0 0 
0 2 2 1 1 1 1 1 1 
1 1 2 2 2 2 2 2 2 
1 1 2 2 2 2 2 1 1 
2 2 2 1 1 1 1 1 1 
2 2 2 2 2 1 1 2 2 
2 2 2 2 2 1 1 2 2 
2 1 1 1 2 2 1 1 1 
1 0 0 0 0 0 0 0 0 
0 0 0 0 0 0 0 0 0 
0 0 0 0 0 0 0 0 0 
0 0 0 0 0 0 0 0 0 
0 0 0 2 1 1 1 1 1 
1 1 1 1 1 1 1 1 2 
1 1 1 2 2 2 2 2 1 
1 2 2 2 1 1 1 1 1 
2 2 2 2 2 2 1 1 1 
1 2 2 2 2 2 1 1 1 
1 1 2 2 2 2 2 1 1 
1 0 0 0 0 0 0 0 0 
0 0 0 0 0 0 0 0 0 
0 0 0 0 0 0 0 0 0 
0 0 0 0 0 0 0 0 0 
0 0 0 0 0 1 2 2 2 
2 1 1 1 1 1 1 1 1 
2 1 1 1 2 2 2 2 2 
1 1 2 2 2 1 1 1 1 
1 2 1 1 1 1 2 1 1 
1 1 1 2 2 2 2 1 1 
1 1 1 2 2 2 2 2 2 
1 0 0 0 0 0 0 0 0 
0 0 0 0 0 0 0 0 0 
0 0 0 0 0 0 0 0 0 
0 0 0 0 0 0 0 0 0 
0 0 0 0 0 0 0 2 2 
2 2 2 2 1 2 2 2 2 
2 2 1 1 1 2 2 2 2 
2 1 1 2 2 2 1 1 1 
1 1 1 1 1 1 1 2 1 
1 1 1 1 1 2 2 2 1 
1 1 1 1 2 2 2 2 2 
2 0 0 0 0 0 0 0 0 
0 0 0 0 0 0 0 0 0 
0 0 0 0 0 0 0 0 0 
0 0 0 0 0 0 0 0 0 
0 0 0 0 0 0 0 0 0 
2 2 2 2 2 1 2 2 2 
2 2 2 1 1 1 1 1 1 
1 2 1 1 2 2 2 1 1 
1 1 2 2 1 1 1 1 1 
1 1 1 1 1 1 1 1 1 
1 1 1 1 1 2 2 2 2 
2 0 0 0 0 0 0 0 0 
0 0 0 0 0 0 0 0 0 
0 0 0 0 0 0 0 0 0 
0 0 0 0 0 0 0 0 0 
0 0 0 0 0 0 0 0 0 
0 0 2 2 2 2 1 2 2 
2 2 2 2 1 1 1 1 1 
1 1 2 1 1 1 1 1 2 
2 2 2 2 2 1 1 1 1 
2 2 2 2 2 2 2 2 2 
2 2 1 1 1 1 2 2 2 
2 0 0 0 0 0 0 0 0 
0 0 0 0 0 0 0 0 0 
0 0 0 0 0 0 0 0 0 
0 0 0 0 0 0 0 0 0 
0 0 0 0 0 0 0 0 0 
0 0 0 0 2 2 2 1 1 
2 2 2 2 2 2 2 2 2 
2 1 1 2 2 2 2 2 1 
2 2 2 2 2 2 2 2 2 
1 2 2 2 2 2 2 2 1 
1 1 1 1 1 1 1 2 2 
2 0 0 0 0 0 0 0 0 
0 0 0 0 0 0 0 0 0 
0 0 0 0 0 0 0 0 0 
0 0 0 0 0 0 0 0 0 
0 0 0 0 0 0 0 0 0 
0 0 0 0 0 0 2 2 1 
1 1 1 1 1 1 2 2 2 
2 2 2 1 2 2 2 2 2 
1 2 2 2 2 1 1 1 1 
1 1 2 2 2 2 2 2 2 
1 1 1 1 1 0 0 0 0 
0 0 0 0 0 0 0 0 0 
0 0 0 0 0 0 0 0 0 
0 0 0 0 0 0 0 0 0 
0 0 0 0 0 0 0 0 0 
0 0 0 0 0 0 0 0 0 
0 0 0 0 0 0 0 0 2 
1 1 1 1 1 1 1 2 2 
2 2 2 2 1 2 2 2 2 
2 1 2 2 2 1 1 1 1 
1 1 1 2 1 1 1 1 1 
2 1 1 1 1 0 0 0 0 
0 0 0 0 0 0 0 0 0 
0 0 0 0 0 0 0 0 0 
0 0 0 0 0 0 0 0 0 
0 0 0 0 0 0 0 0 0 
0 0 0 0 0 0 0 0 0 
0 0 0 0 0 0 0 0 0 
0 1 1 1 1 1 1 1 2 
2 2 2 2 2 1 2 2 2 
2 2 1 2 2 2 1 1 1 
1 1 1 1 2 1 1 1 1 
1 2 1 1 1 0 0 0 0 
0 0 0 0 0 0 0 0 0 
0 0 0 0 0 0 0 0 0 
0 0 0 0 0 0 0 0 0 
0 0 0 0 0 0 0 0 0 
0 0 0 0 0 0 0 0 0 
0 0 0 0 0 0 0 0 0 
0 0 0 1 1 1 1 1 2 
2 2 2 2 2 2 1 2 2 
2 2 2 2 2 2 2 1 1 
1 1 1 1 1 1 1 1 1 
1 1 1 1 1 0 0 0 0 
0 0 0 0 0 0 0 0 0 
0 0 0 0 0 0 0 0 0 
0 0 0 0 0 0 0 0 0 
0 0 0 0 0 0 0 0 0 
0 0 0 0 0 0 0 0 0 
0 0 0 0 0 0 0 0 0 
0 0 0 0 0 0 0 0 0 
0 0 0 0 0 0 0 0 0 
0 0 0 0 0 0 0 0 0 
0 0 0 0 0 0 0 0 0 
0 0 0 0 0 0 0 0 0 
0 0 0 0 0 0 0 0 0 
0 0 0 0 0 0 0 0 0 
0 0 0 0 0 0 0 0 0 
0 0 0 0 0 0 0 0 0 
0 0 0 0 0 0 0 0 0 
0 0 0 0 0 0 0 0 0 
0 0 0 0 0 0 0 0 0 
0 0 0 0 0 0 0 0 0 
0 0 0 0 0 0 0 0 0 
0 0 0 0 0 0 0 0 0 
0 0 0 0 0 0 0 0 0 
0 0 0 0 0 0 0 0 0 
0 0 0 0 0 0 0 0 0 
0 0 0 0 0 0 0 0 0 
0 0 0 0 0 0 0 0 0 
0 0 0 0 0 0 0 0 0 
0 0 0 0 0 0 0 0 0 
0 0 0 0 0 0 0 0 0 
0 0 0 0 0 0 0 0 0 
0 0 0 0 0 0 0 0 0 
0 0 0 0 0 0 0 0 0 
0 0 0 0 0 0 0 0 0 
0 0 0 0 0 0 0 0 0 
0 0 0 0 0 0 0 0 0 
0 0 0 0 0 0 0 0 0 
0 0 0 0 0 0 0 0 0 
0 0 0 0 0 0 0 0 0 
0 0 0 0 0 0 0 0 0 
0 0 0 0 0 0 0 0 0 
0 0 0 0 0 0 0 0 0 
0 0 0 0 0 0 0 0 0 
0 0 0 0 0 0 0 0 0 
0 0 0 0 0 0 0 0 0 
0 0 0 0 0 0 0 0 0 
0 0 0 0 0 0 0 0 0 
0 0 0 0 0 0 0 0 0 
0 0 0 0 0 0 0 0 0 
0 0 0 0 0 0 0 0 0 
0 0 0 0 0 0 0 0 0 
0 0 0 0 0 0 0 0 0 
0 0 0 0 0 0 0 0 0 
0 0 0 0 0 0 0 0 0 
0 0 0 0 0 0 0 0 0 
0 0 0 0 0 0 0 0 0 
0 0 0 0 0 0 0 0 0 
0 0 0 0 0 0 0 0 0 
0 0 0 0 0 0 0 0 0 
0 0 0 0 0 0 0 0 0 
0 0 0 0 0 0 0 0 0 
0 0 0 0 0 0 0 0 0 
0 0 0 0 0 0 0 0 0 
0 0 0 0 0 0 0 0 0 
0 0 0 0 0 0 0 0 0 
0 0 0 0 0 0 0 0 0 
0 0 0 0 0 0 0 0 0 
0 0 0 0 0 0 0 0 0 
0 0 0 0 0 0 0 0 0 
0 0 0 0 0 0 0 0 0 
0 0 0 0 0 0 0 0 0 
0 0 0 0 0 0 0 0 0 
0 0 0 0 0 0 0 0 0 
0 0 0 0 0 0 0 0 0 
0 0 0 0 0 0 0 0 0 
0 0 0 0 0 0 0 0 0 
0 0 0 0 0 0 0 0 0 
0 0 0 0 0 0 0 0 0 
0 0 0 0 0 0 0 0 0 
0 0 0 0 0 0 0 0 0 
0 0 0 0 0 0 0 0 0 
0 0 0 0 0 0 0 0 0 
0 0 0 0 0 0 0 0 0 
0 0 0 0 0 0 0 0 0 
0 0 0 0 0 0 0 0 0 
0 0 0 0 0 0 0 0 0 
0 0 0 0 0 0 0 0 0 
0 0 0 0 0 0 0 0 0 
0 0 0 0 0 0 0 0 0 
0 0 0 0 0 0 0 0 0 
0 0 0 0 0 0 0 0 0 
0 0 0 0 0 0 0 0 0 
0 0 0 0 0 0 0 0 0 
0 0 0 0 0 0 0 0 0 
0 0 0 0 0 0 0 0 0 
0 0 0 0 0 0 0 0 0 
0 0 0 0 0 0 0 0 0 
0 0 0 0 0 0 0 0 0 
0 0 0 0 0 0 0 0 0 
0 0 0 0 0 0 0 0 0 
0 0 0 0 0 0 0 0 0 
0 0 0 0 0 0 0 0 0 
0 0 0 0 0 0 0 0 0 
0 0 0 0 0 0 0 0 0 
0 0 0 0 0 0 0 0 0 
0 0 0 0 0 0 0 0 0 
0 0 0 0 0 0 0 0 0 
0 0 0 0 0 0 0 0 0 
0 0 0 0 0 0 0 0 0 
0 0 0 0 0 0 0 0 0 
0 0 0 0 0 0 0 0 0 
0 0 0 0 0 0 0 0 0 
0 0 0 0 0 0 0 0 0 
0 0 0 0 0 0 0 0 0 
0 0 0 0 0 0 0 0 0 
0 
CellId 1 10000 long
0 0 0 0 0 0 0 0 0 
0 0 0 0 0 0 0 0 0 
0 0 0 0 0 0 0 0 0 
0 0 0 0 0 0 0 0 0 
0 0 0 0 0 0 0 0 0 
0 0 0 0 0 0 0 0 0 
0 0 0 0 0 0 0 0 0 
0 0 0 0 0 0 0 0 0 
0 0 0 0 0 0 0 0 0 
0 0 0 0 0 0 0 0 0 
0 0 0 0 0 0 0 0 0 
0 0 0 0 0 0 0 0 0 
0 0 0 0 0 0 0 0 0 
0 0 0 0 0 0 0 0 0 
0 0 0 0 0 0 0 0 0 
0 0 0 0 0 0 0 0 0 
0 0 0 0 0 0 0 0 0 
0 0 0 0 0 0 0 0 0 
0 0 0 0 0 0 0 0 0 
0 0 0 0 0 0 0 0 0 
0 0 0 0 0 0 0 0 0 
0 0 0 0 0 0 0 0 0 
0 0 0 0 0 0 0 0 0 
0 0 0 0 0 0 0 0 0 
0 0 0 0 0 0 0 0 0 
0 0 0 0 0 0 0 0 0 
0 0 0 0 0 0 0 0 0 
0 0 0 0 0 0 0 0 0 
0 0 0 0 0 0 0 0 0 
0 0 0 0 0 0 0 0 0 
0 0 0 0 0 0 0 0 0 
0 0 0 0 0 0 0 0 0 
0 0 0 0 0 0 0 0 0 
0 0 0 0 0 0 0 0 0 
0 0 0 0 0 0 0 0 0 
0 0 0 0 0 0 0 0 0 
0 0 0 0 0 0 0 0 0 
0 0 0 0 0 0 0 0 0 
0 0 0 0 0 0 0 0 0 
0 0 0 0 0 0 0 0 0 
0 0 0 0 0 0 0 0 0 
0 0 0 0 0 0 0 0 0 
0 0 0 0 0 0 0 0 0 
0 0 0 0 0 0 0 0 0 
0 0 0 0 0 0 0 0 0 
0 0 0 0 0 0 0 0 0 
0 0 0 0 0 0 0 0 0 
0 0 0 0 0 0 0 0 0 
0 0 0 0 0 0 0 0 0 
0 0 0 0 0 0 0 0 0 
0 0 0 0 0 0 0 0 0 
0 0 0 0 0 0 0 0 0 
0 0 0 0 0 0 0 0 0 
0 0 0 0 0 0 0 0 0 
0 0 0 0 0 0 0 0 0 
0 0 0 0 0 0 0 0 0 
0 0 0 0 0 0 0 0 0 
0 0 0 0 0 0 0 0 0 
0 0 0 0 0 0 0 0 0 
0 0 0 0 0 0 0 0 0 
0 0 0 0 0 0 0 0 0 
0 0 0 0 0 0 0 0 0 
0 0 0 0 0 0 0 0 0 
0 0 0 0 0 0 0 0 0 
0 0 0 0 0 0 0 0 0 
0 0 0 0 0 0 0 0 0 
0 0 0 0 0 0 0 0 0 
0 0 0 0 0 0 0 0 0 
0 0 0 0 0 0 0 0 0 
0 0 0 0 0 0 0 0 0 
0 0 0 0 0 0 0 0 0 
0 0 0 0 0 0 0 0 0 
0 0 0 0 0 0 0 0 0 
0 0 0 0 0 0 0 0 0 
0 0 0 0 0 0 0 0 0 
0 0 0 0 0 0 0 0 0 
0 0 0 0 0 0 0 0 0 
0 0 0 0 0 0 0 0 0 
0 0 0 0 0 0 0 0 0 
0 0 0 0 0 0 0 0 0 
0 0 0 0 0 0 0 0 0 
0 0 0 0 0 0 0 0 0 
0 0 0 0 0 0 0 0 0 
0 0 0 0 0 0 0 0 0 
0 0 0 0 0 0 0 0 0 
0 0 0 0 0 0 0 0 0 
0 0 0 0 0 0 0 0 0 
0 0 0 0 0 0 0 0 0 
0 0 0 0 0 0 0 0 0 
0 0 0 0 0 0 0 0 0 
0 0 0 0 0 0 0 0 0 
0 0 0 0 0 0 0 0 0 
0 0 0 0 0 0 0 0 0 
0 0 0 0 0 0 0 0 0 
0 0 0 0 0 0 0 0 0 
0 0 0 0 0 0 0 0 0 
0 0 0 0 0 0 0 0 0 
0 0 0 0 0 0 0 0 0 
0 0 0 0 0 0 0 0 0 
0 0 0 0 0 0 0 0 0 
0 0 0 0 0 0 0 0 0 
0 0 0 0 0 0 0 0 0 
0 0 0 0 0 0 0 0 0 
0 0 0 0 0 0 0 0 0 
0 0 0 0 0 0 0 0 0 
0 0 0 0 0 0 0 0 0 
0 0 0 0 0 0 0 0 0 
0 0 0 0 0 0 0 0 0 
0 0 0 0 0 0 0 0 0 
0 0 0 0 0 0 0 0 0 
0 0 0 0 0 0 0 0 0 
0 0 0 0 0 0 0 0 0 
0 0 0 0 0 0 0 0 0 
0 0 0 0 0 0 0 0 0 
0 0 0 0 0 0 0 0 0 
0 0 0 0 0 0 0 0 0 
0 0 0 0 0 0 0 0 0 
0 0 0 0 0 0 0 0 0 
0 0 0 0 0 0 0 0 0 
0 0 0 0 0 0 0 0 0 
0 0 0 0 0 0 0 0 0 
0 0 0 0 0 0 0 0 0 
0 0 0 0 0 0 0 0 0 
0 0 0 0 0 0 0 0 0 
0 0 0 0 0 0 0 0 0 
0 0 0 0 0 0 0 0 0 
0 0 0 0 0 0 0 0 0 
0 0 0 0 0 0 0 0 0 
0 0 0 0 0 0 0 0 0 
0 0 0 0 0 0 0 0 0 
0 0 0 0 0 0 0 0 0 
0 0 0 0 0 0 0 0 0 
0 0 0 0 0 0 0 0 0 
0 0 0 0 0 0 0 0 0 
0 0 0 0 0 0 0 0 0 
0 0 0 0 0 0 0 0 0 
0 0 0 0 0 0 0 0 0 
0 0 0 0 0 0 0 0 0 
0 0 0 0 0 0 0 0 0 
0 0 0 0 0 0 0 0 0 
0 0 0 0 0 0 0 0 0 
0 0 0 0 0 0 0 0 0 
0 0 0 0 0 0 0 0 0 
0 0 0 0 0 0 0 0 0 
0 0 0 0 0 0 0 0 0 
0 0 0 0 0 0 0 0 0 
0 0 0 0 0 0 0 0 0 
0 0 0 0 0 0 0 0 0 
0 0 0 0 0 0 0 0 0 
0 0 0 0 0 0 0 0 0 
0 0 0 0 0 0 0 0 0 
0 0 0 0 0 0 0 0 0 
0 0 0 0 0 0 0 0 0 
0 0 0 0 0 0 0 0 0 
0 0 0 0 0 0 0 0 0 
0 0 0 0 0 0 0 0 0 
0 0 0 0 0 0 0 0 0 
0 0 0 0 0 0 0 0 0 
0 0 0 0 0 0 0 0 0 
0 0 0 0 0 0 0 0 0 
0 0 0 0 0 0 0 0 0 
0 0 0 0 0 0 0 0 0 
0 0 0 0 0 0 0 0 0 
0 0 0 0 0 0 0 0 0 
0 0 0 0 0 0 0 0 0 
0 0 0 0 0 0 0 0 0 
0 0 0 0 0 0 0 0 0 
0 0 0 0 0 0 0 0 0 
0 0 0 0 0 0 0 0 0 
0 0 0 0 0 0 0 0 0 
0 1 1 1 1 1 2 2 2 
2 2 2 2 3 3 3 3 3 
4 4 4 4 4 4 5 5 5 
5 5 5 5 5 6 6 6 6 
6 6 6 7 7 7 7 7 0 
0 0 0 0 0 0 0 0 0 
0 0 0 0 0 0 0 0 0 
0 0 0 0 0 0 0 0 0 
0 0 0 0 0 0 0 0 0 
0 0 0 0 0 0 0 0 0 
0 0 0 0 0 0 0 0 0 
0 1 1 1 1 1 1 2 2 
2 2 2 2 2 3 3 3 3 
3 4 4 4 4 4 4 5 5 
5 5 5 5 5 5 6 6 6 
6 6 6 6 7 7 7 7 7 
7 0 0 0 0 0 0 0 0 
0 0 0 0 0 0 0 0 0 
0 0 0 0 0 0 0 0 0 
0 0 0 0 0 0 0 0 0 
0 0 0 0 0 0 0 0 0 
0 0 0 0 0 0 0 0 0 
0 8 1 1 1 1 1 1 2 
2 2 2 2 2 2 3 3 3 
3 3 4 4 4 4 4 4 5 
5 5 5 5 5 5 5 6 6 
6 6 6 6 6 7 7 7 7 
7 7 7 0 0 0 0 0 0 
0 0 0 0 0 0 0 0 0 
0 0 0 0 0 0 0 0 0 
0 0 0 0 0 0 0 0 0 
0 0 0 0 0 0 0 0 0 
0 0 0 0 0 0 0 0 0 
0 8 8 1 1 1 1 1 1 
2 2 2 2 2 2 2 3 3 
3 3 3 4 4 4 4 4 4 
5 14 14 14 14 14 14 5 6 
6 6 6 6 6 6 7 7 7 
7 7 7 7 7 0 0 0 0 
0 0 0 0 0 0 0 0 0 
0 0 0 0 0 0 0 0 0 
0 0 0 0 0 0 0 0 0 
0 0 0 0 0 0 0 0 0 
0 0 0 0 0 0 0 0 0 
0 8 8 8 1 1 1 9 9 
9 10 10 10 10 10 2 2 3 
3 3 3 3 3 4 4 4 4 
4 13 14 14 14 14 14 14 15 
6 6 16 16 16 16 16 16 17 
17 17 17 17 17 17 17 0 0 
0 0 0 0 0 0 0 0 0 
0 0 0 0 0 0 0 0 0 
0 0 0 0 0 0 0 0 0 
0 0 0 0 0 0 0 0 0 
0 0 0 0 0 0 0 0 0 
0 8 8 8 8 1 1 9 9 
9 9 10 10 10 10 10 10 2 
3 3 12 12 12 12 12 13 13 
13 13 13 14 14 14 14 14 15 
15 15 16 16 16 16 16 16 16 
17 17 17 17 17 17 30 30 30 
0 0 0 0 0 0 0 0 0 
0 0 0 0 0 0 0 0 0 
0 0 0 0 0 0 0 0 0 
0 0 0 0 0 0 0 0 0 
0 0 0 0 0 0 0 0 0 
0 8 8 8 8 8 1 9 9 
9 9 9 10 10 10 10 10 10 
2 3 12 12 12 12 12 12 13 
13 13 13 13 14 14 14 14 15 
15 15 15 28 16 16 16 16 16 
16 17 17 17 17 17 17 30 30 
18 18 0 0 0 0 0 0 0 
0 0 0 0 0 0 0 0 0 
0 0 0 0 0 0 0 0 0 
0 0 0 0 0 0 0 0 0 
0 0 0 0 0 0 0 0 0 
0 8 8 8 8 8 8 20 9 
9 9 9 9 10 10 10 10 10 
10 11 3 12 12 12 12 12 12 
13 13 13 13 13 14 14 14 15 
15 15 15 15 28 28 28 28 16 
16 16 17 17 17 17 17 30 30 
30 18 18 18 0 0 0 0 0 
0 0 0 0 0 0 0 0 0 
0 0 0 0 0 0 0 0 0 
0 0 0 0 0 0 0 0 0 
0 0 0 0 0 0 0 0 0 
0 8 8 8 8 8 8 20 20 
9 9 9 9 9 10 10 10 10 
11 11 11 23 12 12 12 12 12 
12 13 13 13 13 13 13 14 15 
15 15 15 15 15 28 28 28 28 
28 28 16 17 17 17 17 17 30 
30 30 18 18 18 18 0 0 0 
0 0 0 0 0 0 0 0 0 
0 0 0 0 0 0 0 0 0 
0 0 0 0 0 0 0 0 0 
0 0 0 0 0 0 0 0 0 
0 20 20 20 20 20 20 20 20 
20 9 9 9 9 9 10 11 11 
11 11 11 11 23 23 12 12 12 
12 12 13 13 13 13 13 13 26 
15 15 15 15 15 15 28 28 28 
28 28 28 29 29 29 29 29 30 
30 30 30 18 18 18 18 18 0 
0 0 0 0 0 0 0 0 0 
0 0 0 0 0 0 0 0 0 
0 0 0 0 0 0 0 0 0 
0 0 0 0 0 0 0 0 0 
0 20 20 20 20 20 21 21 21 
21 21 22 22 22 22 22 22 11 
11 11 11 11 11 23 23 23 23 
23 23 23 25 25 25 25 25 13 
26 26 26 26 26 26 15 28 28 
28 28 28 29 29 29 29 42 42 
42 30 30 30 18 18 18 18 18 
18 0 0 0 0 0 0 0 0 
0 0 0 0 0 0 0 0 0 
0 0 0 0 0 0 0 0 0 
0 0 0 0 0 0 0 0 0 
0 19 20 20 20 20 20 21 21 
21 21 21 22 22 22 22 22 22 
11 11 11 11 11 11 23 23 23 
23 23 23 23 25 25 25 25 25 
13 26 26 26 26 26 26 27 28 
28 28 28 29 29 29 29 29 42 
42 42 30 30 30 18 18 18 18 
31 31 31 0 0 0 0 0 0 
0 0 0 0 0 0 0 0 0 
0 0 0 0 0 0 0 0 0 
0 0 0 0 0 0 0 0 0 
0 19 19 19 20 20 20 21 21 
21 21 21 21 22 22 22 22 22 
22 11 11 11 11 11 11 23 23 
23 23 23 23 23 25 25 25 25 
25 38 26 26 26 26 26 26 27 
27 28 28 28 29 29 29 29 42 
42 42 42 30 30 30 18 31 31 
31 31 31 31 31 0 0 0 0 
0 0 0 0 0 0 0 0 0 
0 0 0 0 0 0 0 0 0 
0 0 0 0 0 0 0 0 0 
0 19 19 19 19 19 19 21 21 
21 21 21 21 21 22 22 22 22 
22 22 11 11 36 36 36 36 23 
23 23 23 23 23 23 25 25 25 
25 25 38 26 26 26 26 26 27 
27 27 27 27 28 29 29 29 29 
42 42 42 42 30 30 30 43 31 
31 31 31 31 31 44 44 0 0 
0 0 0 0 0 0 0 0 0 
0 0 0 0 0 0 0 0 0 
0 0 0 0 0 0 0 0 0 
0 19 19 19 19 19 19 19 33 
33 33 33 33 33 33 34 34 34 
34 22 22 11 36 36 36 36 24 
24 24 24 24 24 24 23 25 25 
25 25 38 38 38 38 26 27 27 
27 27 27 27 27 41 29 29 29 
29 42 42 42 42 30 43 43 43 
31 31 31 31 44 44 44 44 58 
0 0 0 0 0 0 0 0 0 
0 0 0 0 0 0 0 0 0 
0 0 0 0 0 0 0 0 0 
0 0 19 19 19 19 19 19 19 
33 33 33 33 33 33 33 34 34 
34 34 22 22 36 36 36 36 36 
24 24 24 37 37 37 24 24 38 
38 38 38 38 38 38 38 40 27 
27 27 27 27 27 41 41 41 41 
41 29 42 42 42 42 43 43 43 
43 31 31 31 44 44 44 44 44 
58 58 0 0 0 0 0 0 0 
0 0 0 0 0 0 0 0 0 
0 0 0 0 0 0 0 0 0 
0 0 0 19 19 19 19 19 19 
19 33 33 33 33 33 33 33 34 
34 34 34 22 35 35 36 36 36 
36 24 24 24 37 37 37 37 24 
38 38 38 38 38 38 38 40 40 
40 40 40 27 27 27 41 41 41 
41 41 56 42 42 42 56 43 43 
43 43 31 31 31 44 44 44 44 
58 58 58 58 0 0 0 0 0 
0 0 0 0 0 0 0 0 0 
0 0 0 0 0 0 0 0 0 
0 0 0 0 32 32 32 32 32 
32 19 19 33 33 33 33 33 34 
34 34 34 34 48 35 35 35 36 
36 36 24 24 24 37 37 37 37 
37 38 38 38 38 38 38 40 40 
40 40 40 40 40 27 27 41 41 
41 41 41 56 56 56 56 56 43 
43 43 43 43 31 44 44 44 44 
44 58 58 58 58 0 0 0 0 
0 0 0 0 0 0 0 0 0 
0 0 0 0 0 0 0 0 0 
0 0 0 0 46 46 32 32 32 
32 32 32 32 32 47 47 33 33 
34 34 34 34 48 48 35 35 35 
35 35 36 24 24 24 37 37 37 
37 39 39 39 39 39 39 38 40 
40 40 40 40 40 40 40 41 41 
41 41 41 41 56 56 56 56 56 
43 43 43 43 43 57 44 44 44 
58 58 58 58 58 58 0 0 0 
0 0 0 0 0 0 0 0 0 
0 0 0 0 0 0 0 0 0 
0 0 0 0 46 46 46 46 46 
46 32 32 32 32 32 47 47 47 
47 48 48 48 48 48 35 35 35 
35 35 35 50 24 24 24 37 39 
39 39 39 39 39 39 39 39 53 
40 40 40 40 40 40 69 69 69 
69 69 41 41 41 56 56 56 56 
56 43 43 43 43 43 57 57 44 
44 58 58 58 58 58 58 0 0 
0 0 0 0 0 0 0 0 0 
0 0 0 0 0 0 0 0 0 
0 0 0 0 0 46 46 46 46 
46 46 46 46 46 32 32 47 47 
47 47 48 48 48 48 48 35 35 
35 35 35 50 50 50 50 24 51 
51 51 51 51 51 39 39 39 39 
53 53 53 53 53 53 54 69 69 
69 69 69 69 41 41 56 56 56 
56 56 43 43 57 57 57 57 57 
57 44 58 58 59 59 59 59 0 
0 0 0 0 0 0 0 0 0 
0 0 0 0 0 0 0 0 0 
0 0 0 0 0 0 46 46 46 