# vtk DataFile Version 5.1
vtk output
ASCII
DATASET STRUCTURED_POINTS
DIMENSIONS 100 100 1
SPACING 1 1 1
ORIGIN 0 0 0
POINT_DATA 10000
FIELD FieldData 3
CellType 1 10000 char
0 0 0 0 0 0 0 0 0 
0 0 0 0 0 0 0 0 0 
0 0 0 0 0 0 0 0 0 
0 0 0 0 0 0 0 0 0 
0 0 0 0 0 0 0 0 0 
0 0 0 0 0 0 0 0 0 
0 0 0 0 0 0 0 0 0 
0 0 0 0 0 0 0 0 0 
0 0 0 0 0 0 0 0 0 
0 0 0 0 0 0 0 0 0 
0 0 0 0 0 0 0 0 0 
0 0 0 0 0 0 0 0 0 
0 0 0 0 0 0 0 0 0 
0 0 0 0 0 0 0 0 0 
0 0 0 0 0 0 0 0 0 
0 0 0 0 0 0 0 0 0 
0 0 0 0 0 0 0 0 0 
0 0 0 0 0 0 0 0 0 
0 0 0 0 0 0 0 0 0 
0 0 0 0 0 0 0 0 0 
0 0 0 0 0 0 0 0 0 
0 0 0 0 0 0 0 0 0 
0 0 0 0 0 0 0 0 0 
0 0 0 0 0 0 0 0 0 
0 0 0 0 0 0 0 0 0 
0 0 0 0 0 0 0 0 0 
0 0 0 0 0 0 0 0 0 
0 0 0 0 0 0 0 0 0 
0 0 0 0 0 0 0 0 0 
0 0 0 0 0 0 0 0 0 
0 0 0 0 0 0 0 0 0 
0 0 0 0 0 0 0 0 0 
0 0 0 0 0 0 0 0 0 
0 0 0 0 0 0 0 0 0 
0 0 0 0 0 0 0 0 0 
0 0 0 0 0 0 0 0 0 
0 0 0 0 0 0 0 0 0 
0 0 0 0 0 0 0 0 0 
0 0 0 0 0 0 0 0 0 
0 0 0 0 0 0 0 0 0 
0 0 0 0 0 0 0 0 0 
0 0 0 0 0 0 0 0 0 
0 0 0 0 0 0 0 0 0 
0 0 0 0 0 0 0 0 0 
0 0 0 0 0 0 0 0 0 
0 0 0 0 0 0 0 0 0 
0 0 0 0 0 0 0 0 0 
0 0 0 0 0 0 0 0 0 
0 0 0 0 0 0 0 0 0 
0 0 0 0 0 0 0 0 0 
0 0 0 0 0 0 0 0 0 
0 0 0 0 0 0 0 0 0 
0 0 0 0 0 0 0 0 0 
0 0 0 0 0 0 0 0 0 
0 0 0 0 0 0 0 0 0 
0 0 0 0 0 0 0 0 0 
0 0 0 0 0 0 0 0 0 
0 0 0 0 0 0 0 0 0 
0 0 0 0 0 0 0 0 0 
0 0 0 0 0 0 0 0 0 
0 0 0 0 0 0 0 0 0 
0 0 0 0 0 0 0 0 0 
0 0 0 0 0 0 0 0 0 
0 0 0 0 0 0 0 0 0 
0 0 0 0 0 0 0 0 0 
0 0 0 0 0 0 0 0 0 
0 0 0 0 0 0 0 0 0 
0 0 0 0 0 0 0 0 0 
0 0 0 0 0 0 0 0 0 
0 0 0 0 0 0 0 0 0 
0 0 0 0 0 0 0 0 0 
0 0 0 0 0 0 0 0 0 
0 0 0 0 0 0 0 0 0 
0 0 0 0 0 0 0 0 0 
0 0 0 0 0 0 0 0 0 
0 0 0 0 0 0 0 0 0 
0 0 0 0 0 0 0 0 0 
0 0 0 0 0 0 0 0 0 
0 0 0 0 0 0 0 0 0 
0 0 0 0 0 0 0 0 0 
0 0 0 0 0 0 0 0 0 
0 0 0 0 0 0 0 0 0 
0 0 0 0 0 0 0 0 0 
0 0 0 0 0 0 0 0 0 
0 0 0 0 0 0 0 0 0 
0 0 0 0 0 0 0 0 0 
0 0 0 0 0 0 0 0 0 
0 0 0 0 0 0 0 0 0 
0 0 0 0 0 0 0 0 0 
0 0 0 0 0 0 0 0 0 
0 0 0 0 0 0 0 0 0 
0 0 0 0 0 0 0 0 0 
0 0 0 0 0 0 0 0 0 
0 0 0 0 0 0 0 0 0 
0 0 0 0 0 0 0 0 0 
0 0 0 0 0 0 0 0 0 
0 0 0 0 0 0 0 0 0 
0 0 0 0 0 0 0 0 0 
0 0 0 0 0 0 0 0 0 
0 0 0 0 0 0 0 0 0 
0 0 0 0 0 0 0 0 0 
0 0 0 0 0 0 0 0 0 
0 0 0 0 0 0 0 0 0 
0 0 0 0 0 0 0 0 0 
0 0 0 0 0 0 0 0 0 
0 0 0 0 0 0 0 0 0 
0 0 0 0 0 0 0 0 0 
0 0 0 0 0 0 0 0 0 
0 0 0 0 0 0 0 0 0 
0 0 0 0 0 0 0 0 0 
0 0 0 0 0 0 0 0 0 
0 0 0 0 0 0 0 0 0 
0 0 0 0 0 0 0 0 0 
0 0 0 0 0 0 0 0 0 
0 0 0 0 0 0 0 0 0 
0 0 0 0 0 0 0 0 0 
0 0 0 0 0 0 0 0 0 
0 0 0 0 0 0 0 0 0 
0 0 0 0 0 0 0 0 0 
0 0 0 0 0 0 0 0 0 
0 0 0 0 0 0 0 0 0 
0 0 0 0 0 0 0 0 0 
0 0 0 0 0 0 0 0 0 
0 0 0 0 0 0 0 0 0 
0 0 0 0 0 0 0 0 0 
0 0 0 0 0 0 0 0 0 
0 0 0 0 0 0 0 0 0 
0 0 0 0 0 0 0 0 0 
0 0 0 0 0 0 0 0 0 
0 0 0 0 0 0 0 0 0 
0 0 0 0 0 0 0 0 0 
0 0 0 0 0 0 0 0 0 
0 0 0 0 0 0 0 0 0 
0 0 0 0 0 0 0 0 0 
0 0 0 0 0 0 0 0 0 
0 0 0 0 0 0 0 0 0 
0 0 0 0 0 0 0 0 0 
0 0 0 0 0 0 0 0 0 
0 0 0 0 0 0 0 0 0 
0 0 0 0 0 0 0 0 0 
0 0 0 0 0 0 0 0 0 
0 0 0 0 0 0 0 0 0 
0 0 0 0 0 0 0 0 0 
0 0 0 0 0 0 0 0 0 
0 0 0 0 0 0 0 0 0 
0 0 0 0 0 0 0 0 0 
0 0 0 0 0 0 0 0 0 
0 0 0 0 0 0 0 0 0 
0 0 0 0 0 0 0 0 0 
0 0 0 0 0 0 0 0 0 
0 0 0 0 0 0 0 0 0 
0 0 0 0 0 0 0 0 0 
0 0 0 0 0 0 0 0 0 
0 0 0 0 0 0 0 0 0 
0 0 0 0 0 0 0 0 0 
0 0 0 0 0 0 0 0 0 
0 0 0 0 0 0 0 0 0 
0 0 0 0 0 0 0 0 0 
0 0 0 0 0 0 0 0 0 
0 0 0 0 0 0 0 0 0 
0 0 0 0 0 0 0 0 0 
0 0 0 0 0 0 0 0 0 
0 0 0 0 0 0 0 0 0 
0 0 0 0 0 0 0 0 0 
0 0 0 0 0 0 0 0 0 
0 0 0 0 0 0 0 0 0 
0 0 0 0 0 0 0 0 0 
0 0 0 0 0 0 0 0 0 
0 0 0 0 0 0 0 0 0 
0 0 0 0 0 0 0 0 0 
0 2 2 2 2 2 2 1 1 
1 1 1 2 2 2 2 2 1 
1 1 2 2 2 2 2 2 2 
2 2 2 2 2 2 2 2 1 
1 1 1 1 2 2 2 2 0 
0 0 0 0 0 0 0 0 0 
0 0 0 0 0 0 0 0 0 
0 0 0 0 0 0 0 0 0 
0 0 0 0 0 0 0 0 0 
0 0 0 0 0 0 0 0 0 
0 0 0 0 0 0 0 0 0 
0 2 2 2 2 2 2 2 1 
1 1 1 1 2 2 2 2 2 
1 1 1 2 2 2 2 2 2 
2 2 2 2 2 2 2 2 2 
1 1 1 1 1 2 2 2 2 
2 0 0 0 0 0 0 0 0 
0 0 0 0 0 0 0 0 0 
0 0 0 0 0 0 0 0 0 
0 0 0 0 0 0 0 0 0 
0 0 0 0 0 0 0 0 0 
0 0 0 0 0 0 0 0 0 
0 2 2 2 2 2 2 2 2 
1 1 1 1 1 2 2 2 2 
2 1 1 1 2 2 2 2 2 
2 2 2 2 2 2 2 2 2 
2 1 1 1 1 1 1 2 2 
2 2 2 0 0 0 0 0 0 
0 0 0 0 0 0 0 0 0 
0 0 0 0 0 0 0 0 0 
0 0 0 0 0 0 0 0 0 
0 0 0 0 0 0 0 0 0 
0 0 0 0 0 0 0 0 0 
0 2 2 2 2 2 2 2 2 
2 1 1 1 1 1 2 2 2 
2 2 1 1 1 1 2 2 2 
2 2 2 2 2 2 2 2 2 
2 2 1 1 1 1 1 1 2 
2 2 2 2 2 0 0 0 0 
0 0 0 0 0 0 0 0 0 
0 0 0 0 0 0 0 0 0 
0 0 0 0 0 0 0 0 0 
0 0 0 0 0 0 0 0 0 
0 0 0 0 0 0 0 0 0 
0 2 2 2 2 2 2 2 2 
2 2 1 1 1 1 1 2 2 
2 2 2 1 1 1 1 1 2 
2 2 2 2 2 2 2 1 2 
2 2 2 1 1 1 1 1 1 
2 2 2 2 2 1 1 0 0 
0 0 0 0 0 0 0 0 0 
0 0 0 0 0 0 0 0 0 
0 0 0 0 0 0 0 0 0 
0 0 0 0 0 0 0 0 0 
0 0 0 0 0 0 0 0 0 
0 2 2 2 2 2 2 1 1 
1 1 1 1 1 1 1 1 2 
2 2 2 2 1 1 1 1 1 
1 2 2 2 2 2 1 1 1 
1 1 1 1 1 2 2 2 2 
2 2 1 1 1 1 1 1 1 
0 0 0 0 0 0 0 0 0 
0 0 0 0 0 0 0 0 0 
0 0 0 0 0 0 0 0 0 
0 0 0 0 0 0 0 0 0 
0 0 0 0 0 0 0 0 0 
0 1 2 2 2 2 2 2 1 
1 1 1 1 2 2 2 2 2 
1 1 1 1 1 1 1 1 1 
1 2 2 2 2 2 2 1 1 
1 1 1 1 1 1 2 2 2 
2 2 2 1 1 1 1 1 1 
1 1 0 0 0 0 0 0 0 
0 0 0 0 0 0 0 0 0 
0 0 0 0 0 0 0 0 0 
0 0 0 0 0 0 0 0 0 
0 0 0 0 0 0 0 0 0 
0 1 1 1 2 2 2 2 2 
1 1 1 1 1 2 2 2 2 
2 1 1 1 1 1 2 2 2 
2 2 2 2 2 2 2 2 1 
1 1 1 1 1 1 1 2 2 
2 2 2 2 1 1 1 1 1 
1 1 1 1 0 0 0 0 0 
0 0 0 0 0 0 0 0 0 
0 0 0 0 0 0 0 0 0 
0 0 0 0 0 0 0 0 0 
0 0 0 0 0 0 0 0 0 
0 1 1 1 1 1 2 2 2 
2 1 1 1 1 1 2 2 2 
2 2 1 1 1 1 1 2 2 
2 2 2 2 2 2 2 2 2 
2 1 1 1 1 1 1 1 2 
2 2 2 2 2 2 1 1 1 
1 1 1 1 1 1 0 0 0 
0 0 0 0 0 0 0 0 0 
0 0 0 0 0 0 0 0 0 
0 0 0 0 0 0 0 0 0 
0 0 0 0 0 0 0 0 0 
0 1 1 1 1 1 1 1 1 
1 1 1 1 1 1 1 2 2 
2 2 2 1 1 1 1 1 2 
2 2 2 2 2 1 1 1 2 
2 2 2 2 2 2 2 2 2 
2 2 2 2 2 2 2 2 2 
2 2 2 2 1 1 1 1 0 
0 0 0 0 0 0 0 0 0 
0 0 0 0 0 0 0 0 0 
0 0 0 0 0 0 0 0 0 
0 0 0 0 0 0 0 0 0 
0 1 1 1 1 1 1 1 1 
1 1 1 2 2 2 2 2 2 
2 2 2 2 1 1 1 1 1 
2 2 2 2 2 1 1 1 1 
2 2 2 2 2 2 2 2 2 
2 2 2 2 2 1 1 1 2 
2 2 2 2 2 1 1 1 1 
1 0 0 0 0 0 0 0 0 
0 0 0 0 0 0 0 0 0 
0 0 0 0 0 0 0 0 0 
0 0 0 0 0 0 0 0 0 
0 1 1 1 1 1 1 1 1 
1 1 1 1 2 2 2 2 2 
2 2 2 2 2 2 2 2 1 
1 1 2 2 2 1 1 1 1 
1 2 2 2 2 2 2 2 2 
2 2 2 2 2 2 1 1 1 
2 2 2 2 2 2 1 1 1 
1 1 1 0 0 0 0 0 0 
0 0 0 0 0 0 0 0 0 
0 0 0 0 0 0 0 0 0 
0 0 0 0 0 0 0 0 0 
0 1 1 1 1 2 2 2 2 
1 1 1 1 1 2 2 2 2 
2 2 1 1 1 2 2 2 2 
2 2 2 2 2 2 1 1 1 
1 1 2 2 2 2 1 2 2 
2 2 2 2 2 2 2 1 1 
1 1 2 2 2 2 2 1 1 
1 1 1 1 1 0 0 0 0 
0 0 0 0 0 0 0 0 0 
0 0 0 0 0 0 0 0 0 
0 0 0 0 0 0 0 0 0 
0 1 1 1 1 1 2 2 2 
2 2 1 1 1 1 2 2 2 
2 2 2 1 1 1 2 2 2 
2 2 2 2 2 2 2 2 1 
1 1 1 2 2 2 1 1 1 
2 2 2 2 2 2 2 2 1 
1 1 1 1 2 2 2 2 1 
1 1 1 1 1 1 1 0 0 
0 0 0 0 0 0 0 0 0 
0 0 0 0 0 0 0 0 0 
0 0 0 0 0 0 0 0 0 
0 1 1 1 1 1 1 2 2 
2 2 2 2 1 1 1 1 2 
2 2 2 1 1 1 1 2 2 
2 2 2 2 2 2 2 2 2 
1 1 1 1 2 2 1 1 1 
1 2 2 2 2 2 2 2 2 
2 1 1 1 1 1 1 1 2 
2 2 2 2 2 1 1 1 1 
0 0 0 0 0 0 0 0 0 
0 0 0 0 0 0 0 0 0 
0 0 0 0 0 0 0 0 0 
0 2 1 1 1 1 1 1 2 
2 2 2 2 2 1 1 1 1 
1 1 1 1 1 1 1 1 2 
2 2 2 2 2 2 2 2 2 
2 1 1 1 1 1 1 1 1 
1 1 2 2 2 2 2 1 2 
2 2 2 1 1 1 1 1 1 
2 2 2 2 2 2 1 1 1 
1 1 0 0 0 0 0 0 0 
0 0 0 0 0 0 0 0 0 
0 0 0 0 0 0 0 0 0 
0 2 2 2 2 2 1 1 1 
2 2 2 2 2 2 1 1 1 
1 1 1 1 1 1 1 1 1 
1 2 2 2 1 1 1 2 2 
2 2 2 2 2 2 2 1 1 
1 1 1 2 2 2 2 1 1 
2 2 2 2 2 2 2 2 2 
1 1 2 2 2 2 2 1 1 
1 1 1 1 0 0 0 0 0 
0 0 0 0 0 0 0 0 0 
0 0 0 0 0 0 0 0 0 
0 0 2 2 2 2 2 2 2 
1 1 1 1 1 1 1 1 1 
1 1 1 1 1 1 1 1 1 
1 1 2 2 2 1 1 1 1 
1 1 1 2 2 2 2 2 1 
1 1 1 1 2 2 2 1 1 
1 2 2 2 2 2 2 2 2 
2 1 1 1 2 2 2 2 1 
1 1 1 1 1 0 0 0 0 
0 0 0 0 0 0 0 0 0 
0 0 0 0 0 0 0 0 0 
0 0 0 2 2 2 2 2 2 
2 1 1 1 1 1 1 1 2 
2 2 2 2 2 2 2 1 1 
1 1 2 2 2 2 1 1 1 
1 1 1 1 2 2 2 2 2 
1 1 1 1 1 1 1 1 1 
1 1 2 2 2 2 1 2 2 
2 2 1 1 1 1 2 2 2 
1 1 1 1 1 1 0 0 0 
0 0 0 0 0 0 0 0 0 
0 0 0 0 0 0 0 0 0 
0 0 0 0 2 2 2 2 2 
2 2 1 1 1 1 1 1 1 
2 2 2 2 2 2 2 2 1 
1 1 1 2 2 2 2 2 1 
1 1 1 1 1 2 2 2 2 
2 1 2 2 2 2 1 1 1 
1 1 1 2 2 1 1 1 1 
2 2 2 1 1 1 1 2 2 
2 1 1 1 1 1 1 0 0 
0 0 0 0 0 0 0 0 0 
0 0 0 0 0 0 0 0 0 
0 0 0 0 0 2 2 1 1 
1 1 1 1 1 1 1 1 1 
1 2 2 2 2 2 2 2 1 
1 1 1 1 2 2 2 2 2 
1 1 1 1 1 1 2 2 2 
2 2 2 2 2 2 2 1 1 
1 1 1 1 1 1 1 1 1 
1 2 2 2 1 1 1 1 2 
2 1 1 1 1 1 1 1 0 
0 0 0 0 0 0 0 0 0 
0 0 0 0 0 0 0 0 0 
0 0 0 0 0 0 2 2 2 
1 1 1 1 1 2 2 2 2 
2 1 1 1 2 2 2 2 1 
1 1 1 1 1 2 2 2 2 
2 2 2 2 2 2 2 1 1 
1 1 1 2 2 2 2 2 2 
1 1 1 2 2 1 1 1 1 
1 1 2 2 2 1 1 1 1 
1 1 1 1 1 1 1 1 1 
0 0 0 0 0 0 0 0 0 
0 0 0 0 0 0 0 0 0 
0 0 0 0 0 0 0 2 2 
2 2 1 1 1 1 2 2 2 
2 2 1 1 1 1 1 1 1 
1 1 1 1 1 1 2 2 2 
2 2 2 2 2 2 2 2 1 
1 1 1 1 2 2 2 2 2 
2 2 2 2 2 2 2 1 1 
1 1 1 2 2 2 1 1 1 
1 1 1 1 1 2 2 2 2 
2 0 0 0 0 0 0 0 0 
0 0 0 0 0 0 0 0 0 
0 0 0 0 0 0 0 0 2 
2 2 2 1 1 1 1 2 2 
2 2 2 1 1 1 1 1 1 
2 1 1 1 1 2 2 2 2 
1 1 1 1 2 2 2 2 2 
1 1 1 1 1 2 2 2 2 
2 1 1 2 2 2 2 2 2 
1 1 1 1 2 2 1 1 1 
1 1 1 1 1 1 2 2 2 
2 2 0 0 0 0 0 0 0 
0 0 0 0 0 0 0 0 0 
0 0 0 0 0 0 0 0 0 
2 2 2 2 1 1 1 1 2 
2 2 2 2 1 1 1 1 1 
2 2 2 1 1 2 2 2 2 
2 1 1 1 1 1 2 2 2 
2 1 1 1 1 1 2 2 2 
1 1 1 1 1 2 2 2 2 
2 1 1 1 1 1 1 1 1 
1 1 1 1 1 1 1 2 2 
2 2 2 0 0 0 0 0 0 
0 0 0 0 0 0 0 0 0 
0 0 0 0 0 0 0 0 0 
0 2 2 2 2 1 1 1 1 
2 2 2 2 2 1 1 1 1 
2 2 2 2 2 2 2 2 2 
2 2 1 1 1 1 1 1 2 
2 2 1 1 1 1 2 2 2 
2 1 1 1 1 1 1 2 2 
2 1 1 1 1 1 1 1 1 
1 1 1 1 1 1 1 1 2 
2 2 2 2 0 0 0 0 0 
0 0 0 0 0 0 0 0 0 
0 0 0 0 0 0 0 0 0 
0 0 1 1 1 1 1 1 1 
1 1 1 2 2 2 1 1 1 
2 2 2 2 2 2 2 2 2 
2 2 2 1 1 1 1 1 1 
1 2 2 1 1 1 2 2 2 
2 2 1 1 1 1 1 1 1 
1 1 1 1 1 1 1 1 1 
1 1 1 1 2 2 1 1 1 
2 2 2 2 2 0 0 0 0 
0 0 0 0 0 0 0 0 0 
0 0 0 0 0 0 0 0 0 
0 0 0 1 1 1 1 1 1 
1 1 1 1 1 2 2 1 1 
1 2 2 2 2 2 1 1 2 
2 2 2 2 2 2 2 1 1 
1 1 2 2 1 1 2 2 2 
2 2 2 1 1 1 1 1 1 
2 2 1 1 1 1 1 2 2 
1 1 1 1 2 2 2 2 2 
1 1 1 1 1 1 0 0 0 
0 0 0 0 0 0 0 0 0 
0 0 0 0 0 0 0 0 0 
0 0 0 0 1 1 1 1 1 
1 1 1 1 1 1 1 1 1 
1 1 1 2 2 2 1 1 1 
1 1 1 2 2 2 2 2 2 
1 1 2 2 2 2 2 2 2 
2 2 2 2 1 1 1 1 1 
2 2 2 2 1 1 1 2 2 
2 2 1 1 2 2 2 2 2 
2 1 1 1 1 1 1 0 0 
0 0 0 0 0 0 0 0 0 
0 0 0 0 0 0 0 0 0 
0 0 0 0 0 1 1 1 1 
1 2 2 1 1 1 1 1 1 
1 1 1 1 1 2 1 1 1 
1 1 1 1 2 2 2 2 2 
2 2 2 2 2 2 2 2 1 
1 1 1 1 1 2 2 2 2 
2 2 2 2 2 2 1 2 2 
2 2 2 1 1 2 2 2 2 
2 2 1 1 1 1 1 1 0 
0 0 0 0 0 0 0 0 0 
0 0 0 0 0 0 0 0 0 
0 0 0 0 0 0 1 1 1 
1 2 2 2 2 1 1 1 1 
1 1 1 1 1 1 1 1 1 
1 1 1 1 1 2 2 2 2 
2 2 2 2 2 2 2 2 2 
1 1 1 1 1 1 2 2 2 
2 2 2 2 2 2 2 2 2 
2 2 2 2 1 1 1 2 2 
2 2 2 1 1 1 1 1 1 
0 0 0 0 0 0 0 0 0 
0 0 0 0 0 0 0 0 0 
0 0 0 0 0 0 0 1 1 
1 1 2 2 2 2 2 1 1 
2 2 1 1 1 1 1 2 2 
1 1 1 1 2 2 2 1 1 
1 1 1 1 2 2 2 2 2 
2 1 1 1 1 1 1 2 2 
2 2 2 2 2 2 2 2 2 
2 2 2 2 1 1 1 1 2 
2 2 2 2 1 1 1 1 1 
1 0 0 0 0 0 0 0 0 
0 0 0 0 0 0 0 0 0 
0 0 0 0 0 0 0 0 1 
1 1 1 2 2 2 2 2 1 
2 2 2 2 1 1 1 2 2 
2 2 1 1 2 2 2 2 1 
1 1 1 1 1 2 2 2 2 
2 2 1 1 1 1 1 1 2 
2 2 2 2 1 1 1 1 1 
1 2 2 2 1 1 1 1 1 
1 1 1 1 1 1 2 2 2 
2 2 0 0 0 0 0 0 0 
0 0 0 0 0 0 0 0 0 
0 0 0 0 0 0 0 0 0 
1 1 1 1 1 2 2 2 2 
2 2 2 2 2 2 1 2 2 
2 2 2 2 2 2 2 2 2 
1 1 1 1 1 2 2 2 1 
1 1 1 1 2 2 2 1 1 
1 2 2 2 2 1 1 1 1 
1 1 2 2 2 1 1 1 1 
1 1 1 1 1 1 1 2 2 
2 2 2 0 0 0 0 0 0 
0 0 0 0 0 0 0 0 0 
0 0 0 0 0 0 0 0 0 
0 1 1 1 1 1 2 2 2 
2 2 2 2 2 2 2 1 2 
2 2 2 2 2 2 2 2 2 
2 1 1 1 1 2 2 2 2 
1 1 1 1 1 2 2 2 2 
1 1 2 2 2 1 1 1 1 
1 1 2 2 2 2 2 1 1 
1 1 1 1 1 1 1 1 2 
2 2 2 2 0 0 0 0 0 
0 0 0 0 0 0 0 0 0 
0 0 0 0 0 0 0 0 0 
0 0 1 1 1 1 1 1 1 
1 1 1 2 2 2 2 1 1 
1 2 2 2 2 2 1 2 2 
2 2 1 1 1 1 2 2 2 
2 1 1 1 1 1 2 2 2 
2 2 2 2 2 2 2 1 1 
1 1 1 2 2 2 2 2 1 
1 1 1 1 1 1 1 1 1 
2 2 2 2 2 0 0 0 0 
0 0 0 0 0 0 0 0 0 
0 0 0 0 0 0 0 0 0 
0 0 0 2 2 2 2 2 1 
1 1 1 1 1 2 2 1 1 
1 1 1 2 2 2 1 1 1 
2 2 2 1 1 1 2 2 2 
2 2 1 1 1 1 1 2 2 
2 2 2 2 2 2 2 2 2 
1 1 1 1 2 2 2 2 2 
1 1 2 2 2 1 1 2 2 
2 2 2 2 2 2 0 0 0 
0 0 0 0 0 0 0 0 0 
0 0 0 0 0 0 0 0 0 
0 0 0 0 2 2 2 2 2 
1 1 1 1 1 1 2 2 1 
1 1 1 1 1 1 1 1 1 
1 1 1 2 2 2 2 2 2 
2 2 2 1 1 1 1 1 1 
2 2 2 2 2 2 2 2 2 
2 1 1 1 1 2 2 2 2 
2 2 2 2 2 2 2 2 2 
2 2 2 2 2 2 2 0 0 
0 0 0 0 0 0 0 0 0 
0 0 0 0 0 0 0 0 0 
0 0 0 0 0 2 2 2 2 
2 1 1 1 1 1 2 2 2 
2 1 1 1 1 1 1 1 1 
1 1 1 1 2 2 2 2 1 
2 2 2 2 2 2 2 1 1 
2 2 2 2 2 2 2 2 2 
2 2 2 2 2 2 2 2 2 
1 1 1 2 2 2 2 2 2 
2 2 2 2 2 2 2 2 0 
0 0 0 0 0 0 0 0 0 
0 0 0 0 0 0 0 0 0 
0 0 0 0 0 0 2 2 2 
2 2 1 1 1 1 2 2 2 
2 2 2 1 1 1 1 2 2 
1 1 1 1 2 2 2 2 1 
1 1 1 1 2 2 2 2 2 
2 2 2 2 2 2 2 2 1 
1 1 1 2 2 2 2 2 1 
1 1 1 1 2 2 2 2 2 
2 2 2 2 2 2 2 2 2 
0 0 0 0 0 0 0 0 0 
0 0 0 0 0 0 0 0 0 
0 0 0 0 0 0 0 2 2 
2 2 2 1 1 1 1 2 2 
2 2 2 2 1 1 1 2 2 
2 2 1 1 1 2 2 2 2 
1 1 1 1 1 2 2 2 2 
2 2 2 2 2 2 2 2 2 
1 1 1 1 2 2 2 2 2 
1 1 1 1 1 1 2 2 2 
2 2 2 2 2 2 2 2 2 
2 0 0 0 0 0 0 0 0 
0 0 0 0 0 0 0 0 0 
0 0 0 0 0 0 0 0 1 
1 1 1 1 2 2 2 2 2 
2 2 2 2 1 1 1 1 2 
2 2 2 2 2 1 2 2 2 
2 1 1 1 1 1 2 2 2 
2 2 2 2 2 2 2 2 2 
2 1 1 1 1 2 2 2 2 
2 1 1 1 1 1 1 1 2 
2 1 1 1 1 1 2 2 2 
2 2 0 0 0 0 0 0 0 
0 0 0 0 0 0 0 0 0 
0 0 0 0 0 0 0 0 0 
1 1 1 1 1 2 2 2 2 
1 1 2 2 1 1 1 1 1 
2 2 2 2 2 2 1 1 2 
2 2 1 1 1 1 1 1 2 
2 2 2 2 2 2 2 2 2 
2 2 1 1 1 1 2 2 2 
2 2 1 1 1 1 1 1 1 
2 2 1 1 1 1 1 1 2 
2 2 2 0 0 0 0 0 0 
0 0 0 0 0 0 0 0 0 
0 0 0 0 0 0 0 0 0 
0 1 1 1 1 1 2 2 2 
2 1 1 1 1 1 1 1 1 
1 2 2 2 2 2 2 1 1 
1 1 1 2 2 1 1 1 1 
2 2 2 2 2 2 2 2 2 
2 2 2 1 1 1 1 1 2 
2 2 2 2 2 2 2 2 1 
2 2 2 2 1 1 1 1 1 
1 2 2 2 0 0 0 0 0 
0 0 0 0 0 0 0 0 0 
0 0 0 0 0 0 0 0 0 
0 0 1 1 1 1 2 2 2 
2 1 1 1 1 1 1 1 1 
1 1 2 2 2 2 2 2 1 
1 1 1 1 2 2 2 2 2 
2 2 2 2 2 2 2 2 1 
1 1 2 1 1 1 1 1 1 
1 1 1 1 2 2 2 2 2 
2 2 2 2 2 2 1 1 1 
1 1 2 2 2 0 0 0 0 
0 0 0 0 0 0 0 0 0 
0 0 0 0 0 0 0 0 0 
0 0 0 1 1 1 1 2 2 
2 1 1 1 1 1 2 2 2 
2 2 2 1 1 1 1 1 1 
1 1 1 1 1 2 2 2 2 
2 2 2 2 2 2 1 1 1 
1 1 1 2 2 2 2 2 2 
1 1 1 1 1 2 2 2 2 
2 2 2 2 2 2 2 1 1 
1 1 2 2 2 2 0 0 0 
0 0 0 0 0 0 0 0 0 
0 0 0 0 0 0 0 0 0 
0 0 0 0 1 1 1 1 2 
2 2 1 1 1 1 1 2 2 
2 2 2 2 1 1 1 1 1 
1 1 1 1 1 1 2 2 2 
2 2 2 2 2 2 2 1 1 
1 1 1 1 2 2 2 2 2 
2 1 1 1 1 1 2 2 2 
2 2 2 2 2 2 2 2 1 
1 1 2 2 2 2 2 0 0 
0 0 0 0 0 0 0 0 0 
0 0 0 0 0 0 0 0 0 
0 0 0 0 0 1 1 1 1 
1 1 1 1 1 1 1 1 2 
2 2 2 2 2 1 1 1 1 
1 1 1 1 1 1 1 2 2 
2 2 2 2 2 2 2 2 1 
1 1 1 1 1 2 2 2 2 
2 2 1 1 1 1 1 1 2 
2 2 2 1 1 2 2 2 2 
2 2 2 2 2 2 2 2 0 
0 0 0 0 0 0 0 0 0 
0 0 0 0 0 0 0 0 0 
0 0 0 0 0 0 1 1 1 
1 1 1 1 1 1 1 1 1 
1 2 2 2 2 2 1 1 1 
1 1 2 2 2 1 2 2 2 
1 1 1 1 1 1 2 2 1 
1 1 1 1 1 1 2 2 2 
2 2 2 1 1 1 1 1 2 
2 2 1 1 1 1 1 1 1 
2 2 2 2 2 2 2 2 2 
0 0 0 0 0 0 0 0 0 
0 0 0 0 0 0 0 0 0 
0 0 0 0 0 0 0 1 1 
1 1 1 1 1 2 2 2 1 
1 1 1 1 2 2 2 1 1 
1 1 2 2 2 2 2 2 2 
2 2 1 1 1 1 1 2 2 
2 1 1 2 2 2 2 2 2 
2 2 2 2 1 1 1 1 2 
2 2 2 1 1 1 1 1 1 
1 2 2 2 2 2 2 2 2 
2 0 0 0 0 0 0 0 0 
0 0 0 0 0 0 0 0 0 
0 0 0 0 0 0 0 0 1 
1 1 1 1 1 2 2 2 2 
1 1 1 1 1 1 2 2 1 
1 1 2 2 2 2 2 2 2 
2 2 2 1 1 1 1 2 2 
2 2 2 2 2 2 2 2 1 
1 1 1 1 1 1 1 1 2 
2 2 2 2 1 1 1 1 1 
1 1 2 2 2 2 2 2 2 
2 2 0 0 0 0 0 0 0 
0 0 0 0 0 0 0 0 0 
0 0 0 0 0 0 0 0 0 
1 1 1 1 1 2 2 2 2 
2 1 1 1 1 1 1 1 1 
1 1 1 2 2 2 2 2 2 
2 2 2 2 1 1 1 1 2 
2 2 2 2 2 2 2 2 2 
1 1 1 1 1 1 2 2 2 
2 2 2 2 2 1 1 1 1 
1 1 1 2 2 2 2 2 2 
2 2 2 0 0 0 0 0 0 
0 0 0 0 0 0 0 0 0 
0 0 0 0 0 0 0 0 0 
0 1 1 1 1 1 1 2 2 
2 2 2 1 1 1 1 1 1 
1 1 1 1 2 2 2 2 2 
2 2 2 2 2 1 1 1 1 
2 2 2 2 2 2 2 2 2 
2 1 1 1 1 1 2 2 2 
2 2 2 2 2 2 2 2 2 
2 2 1 1 2 2 2 2 2 
2 2 2 2 0 0 0 0 0 
0 0 0 0 0 0 0 0 0 
0 0 0 0 0 0 0 0 0 
0 0 1 1 1 1 1 1 2 
2 2 2 2 1 1 1 1 1 
1 1 1 1 1 1 2 2 2 
1 1 2 2 2 2 1 1 1 
1 2 2 2 2 2 2 2 2 
2 2 1 1 1 1 1 2 2 
2 2 2 1 1 1 1 2 2 
2 2 2 2 2 2 2 2 2 
2 2 2 2 2 0 0 0 0 
0 0 0 0 0 0 0 0 0 
0 0 0 0 0 0 0 0 0 
0 0 0 1 1 1 1 1 1 
2 2 2 2 2 1 1 1 1 
1 1 1 1 1 1 1 1 1 
1 1 1 1 2 2 2 1 1 
2 2 2 2 2 1 1 1 1 
2 2 2 1 1 1 1 1 2 
2 2 2 2 1 1 1 1 2 
2 2 2 2 2 2 2 2 2 
2 2 2 2 2 2 0 0 0 
0 0 0 0 0 0 0 0 0 
0 0 0 0 0 0 0 0 0 
0 0 0 0 1 1 1 1 1 
1 1 1 1 1 1 1 1 1 
1 1 2 2 2 2 2 2 1 
1 1 1 1 2 2 2 2 2 
2 2 2 2 2 1 1 1 1 
1 1 1 2 2 2 2 1 1 
2 2 2 2 2 1 1 1 1 
1 2 2 2 2 2 2 2 2 
2 2 2 2 2 2 2 0 0 
0 0 0 0 0 0 0 0 0 
0 0 0 0 0 0 0 0 0 
0 0 0 0 0 2 2 2 2 
2 1 1 1 1 1 2 1 1 
1 1 1 2 2 2 2 2 2 
1 1 1 1 1 2 2 2 2 
2 2 2 2 2 2 1 1 1 
1 1 1 2 2 2 2 2 2 
1 1 2 2 2 2 1 1 1 
1 1 1 2 2 2 1 1 2 
2 2 2 2 2 2 2 2 0 
0 0 0 0 0 0 0 0 0 
0 0 0 0 0 0 0 0 0 
0 0 0 0 0 0 2 2 2 
2 2 1 1 1 1 1 2 2 
1 1 1 1 2 2 2 2 2 
2 1 1 1 1 1 2 2 2 
2 2 2 2 2 2 2 1 1 
1 1 1 1 2 2 2 2 2 
2 1 1 1 1 1 1 1 1 
1 1 1 1 2 2 2 1 1 
1 1 1 1 2 2 2 2 2 
0 0 0 0 0 0 0 0 0 
0 0 0 0 0 0 0 0 0 
0 0 0 0 0 0 0 2 2 
2 2 2 1 1 1 1 1 2 
2 2 1 1 1 1 2 2 2 
2 2 1 1 1 1 1 2 2 
2 2 2 2 2 2 2 2 1 
1 1 1 1 1 2 2 2 2 
2 2 1 1 1 1 1 1 1 
1 1 1 1 2 2 2 2 2 
1 1 1 1 1 2 2 2 2 
2 0 0 0 0 0 0 0 0 
0 0 0 0 0 0 0 0 0 
0 0 0 0 0 0 0 0 0 
2 2 2 2 2 1 1 1 2 
2 2 2 1 1 1 1 1 2 
2 2 1 1 1 2 2 2 2 
2 2 2 1 1 1 2 2 2 
2 2 2 2 2 2 2 2 2 
2 2 2 1 1 1 1 1 1 
2 2 2 2 2 2 2 2 2 
2 1 1 1 1 1 2 2 2 
2 2 0 0 0 0 0 0 0 
0 0 0 0 0 0 0 0 0 
0 0 0 0 0 0 0 0 0 
0 0 2 2 2 2 1 1 2 
2 2 2 2 1 1 1 1 1 
1 1 1 1 1 1 2 2 2 
2 2 1 1 1 1 1 1 1 
1 2 2 2 2 2 2 2 1 
1 1 1 1 1 1 1 1 1 
1 2 2 2 2 2 2 2 2 
2 2 1 1 1 1 1 2 2 
2 2 0 0 0 0 0 0 0 
0 0 0 0 0 0 0 0 0 
0 0 0 0 0 0 0 0 0 
0 0 0 0 2 2 2 1 1 
2 2 2 2 2 1 1 1 1 
1 1 1 1 1 1 1 2 2 
2 2 2 1 1 1 1 1 1 
1 1 2 2 2 2 2 2 1 
1 1 1 1 2 2 2 2 2 
1 1 2 2 2 2 1 1 2 
2 2 2 1 1 1 1 1 2 
2 2 0 0 0 0 0 0 0 
0 0 0 0 0 0 0 0 0 
0 0 0 0 0 0 0 0 0 
0 0 0 0 0 0 2 1 1 
1 1 2 2 2 2 1 1 1 
1 1 1 1 1 1 1 1 2 
2 2 2 2 1 1 1 1 1 
1 2 2 2 2 2 2 2 1 
1 1 1 1 1 1 2 2 2 
2 2 2 2 2 2 2 1 1 
1 1 1 1 2 2 2 2 2 
2 2 0 0 0 0 0 0 0 
0 0 0 0 0 0 0 0 0 
0 0 0 0 0 0 0 0 0 
0 0 0 0 0 0 0 0 1 
1 1 1 1 1 1 1 2 2 
2 2 2 2 1 1 1 1 1 
2 2 2 2 2 1 1 1 1 
1 2 2 2 2 2 2 2 2 
1 1 1 1 1 1 1 2 2 
2 2 2 2 2 2 2 2 1 
1 1 1 1 1 2 2 2 2 
2 2 0 0 0 0 0 0 0 
0 0 0 0 0 0 0 0 0 
0 0 0 0 0 0 0 0 0 
0 0 0 0 0 0 0 0 0 
0 1 1 1 1 1 1 1 2 
2 2 2 2 2 1 1 1 1 
1 2 2 2 2 2 2 2 2 
2 2 2 2 2 2 2 2 2 
2 2 2 1 1 1 1 1 2 
2 2 2 2 1 1 2 2 2 
1 1 1 1 1 1 2 2 2 
2 2 0 0 0 0 0 0 0 
0 0 0 0 0 0 0 0 0 
0 0 0 0 0 0 0 0 0 
0 0 0 0 0 0 0 0 0 
0 0 0 1 1 1 1 1 1 
2 2 2 2 2 2 1 1 2 
2 2 2 1 1 1 1 2 2 
2 2 2 2 2 2 2 2 2 
2 2 2 2 2 2 2 2 2 
2 2 2 2 2 1 1 1 2 
2 1 1 1 1 1 1 2 2 
2 2 0 0 0 0 0 0 0 
0 0 0 0 0 0 0 0 0 
0 0 0 0 0 0 0 0 0 
0 0 0 0 0 0 0 0 0 
0 0 0 0 0 2 2 2 2 
2 2 2 2 2 2 2 2 2 
2 2 2 2 1 1 1 1 2 
2 2 2 2 2 2 2 2 2 
2 2 2 2 2 2 2 2 2 
2 2 2 2 2 2 1 1 1 
1 1 1 1 1 1 1 1 2 
2 2 0 0 0 0 0 0 0 
0 0 0 0 0 0 0 0 0 
0 0 0 0 0 0 0 0 0 
0 0 0 0 0 0 0 0 0 
0 0 0 0 0 0 0 2 2 
2 2 2 2 2 2 2 2 2 
2 2 2 2 2 1 1 1 1 
2 2 2 2 1 1 1 1 2 
2 2 2 2 2 2 2 2 2 
2 2 2 2 2 2 2 1 1 
1 1 1 2 2 2 2 2 2 
2 2 0 0 0 0 0 0 0 
0 0 0 0 0 0 0 0 0 
0 0 0 0 0 0 0 0 0 
0 0 0 0 0 0 0 0 0 
0 0 0 0 0 0 0 0 0 
2 2 2 2 2 1 1 1 1 
1 2 2 2 2 2 1 1 1 
1 2 2 2 1 1 1 1 1 
2 2 2 2 2 1 1 1 1 
2 2 2 2 2 2 2 2 1 
1 1 1 1 2 2 2 2 2 
2 2 0 0 0 0 0 0 0 
0 0 0 0 0 0 0 0 0 
0 0 0 0 0 0 0 0 0 
0 0 0 0 0 0 0 0 0 
0 0 0 0 0 0 0 0 0 
0 0 2 2 2 2 1 1 1 
1 1 1 2 2 2 2 1 1 
1 1 1 2 1 1 1 1 1 
1 2 2 2 2 2 1 1 1 
1 1 2 2 2 2 2 2 2 
1 1 1 1 1 2 2 2 2 
2 2 0 0 0 0 0 0 0 
0 0 0 0 0 0 0 0 0 
0 0 0 0 0 0 0 0 0 
0 0 0 0 0 0 0 0 0 
0 0 0 0 0 0 0 0 0 
0 0 0 0 2 2 2 2 2 
2 1 1 1 1 2 2 2 1 
1 1 1 1 2 2 1 1 1 
1 1 2 2 2 2 2 1 1 
1 1 1 2 2 2 2 2 2 
2 1 1 1 1 1 2 2 2 
2 2 0 0 0 0 0 0 0 
0 0 0 0 0 0 0 0 0 
0 0 0 0 0 0 0 0 0 
0 0 0 0 0 0 0 0 0 
0 0 0 0 0 0 0 0 0 
0 0 0 0 0 0 2 2 2 
2 2 2 1 1 1 2 2 2 
2 1 1 1 2 2 2 2 1 
1 1 1 2 2 2 2 2 1 
1 1 1 2 2 2 2 2 2 
2 2 2 2 2 2 2 2 2 
2 2 0 0 0 0 0 0 0 
0 0 0 0 0 0 0 0 0 
0 0 0 0 0 0 0 0 0 
0 0 0 0 0 0 0 0 0 
0 0 0 0 0 0 0 0 0 
0 0 0 0 0 0 0 0 2 
2 2 2 2 1 1 1 2 2 
2 2 2 2 2 2 2 2 2 
2 1 1 2 2 2 2 2 2 
1 1 1 1 2 2 2 2 2 
2 2 2 2 2 2 2 2 2 
2 2 0 0 0 0 0 0 0 
0 0 0 0 0 0 0 0 0 
0 0 0 0 0 0 0 0 0 
0 0 0 0 0 0 0 0 0 
0 0 0 0 0 0 0 0 0 
0 0 0 0 0 0 0 0 0 
0 2 2 2 2 1 1 1 2 
2 2 2 2 2 2 2 2 2 
2 2 2 2 2 2 2 2 2 
2 1 1 1 1 2 2 2 2 
2 2 2 2 2 2 2 2 2 
2 0 0 0 0 0 0 0 0 
0 0 0 0 0 0 0 0 0 
0 0 0 0 0 0 0 0 0 
0 0 0 0 0 0 0 0 0 
0 0 0 0 0 0 0 0 0 
0 0 0 0 0 0 0 0 0 
0 0 0 2 2 2 1 1 1 
2 2 2 2 2 2 2 2 2 
2 2 2 2 2 2 2 2 2 
2 2 1 1 1 1 2 2 2 
2 2 2 2 2 2 2 2 2 
2 0 0 0 0 0 0 0 0 
0 0 0 0 0 0 0 0 0 
0 0 0 0 0 0 0 0 0 
0 0 0 0 0 0 0 0 0 
0 0 0 0 0 0 0 0 0 
0 0 0 0 0 0 0 0 0 
0 0 0 0 0 0 0 0 0 
0 0 0 0 0 0 0 0 0 
0 0 0 0 0 0 0 0 0 
0 0 0 0 0 0 0 0 0 
0 0 0 0 0 0 0 0 0 
0 0 0 0 0 0 0 0 0 
0 0 0 0 0 0 0 0 0 
0 0 0 0 0 0 0 0 0 
0 0 0 0 0 0 0 0 0 
0 0 0 0 0 0 0 0 0 
0 0 0 0 0 0 0 0 0 
0 0 0 0 0 0 0 0 0 
0 0 0 0 0 0 0 0 0 
0 0 0 0 0 0 0 0 0 
0 0 0 0 0 0 0 0 0 
0 0 0 0 0 0 0 0 0 
0 0 0 0 0 0 0 0 0 
0 0 0 0 0 0 0 0 0 
0 0 0 0 0 0 0 0 0 
0 0 0 0 0 0 0 0 0 
0 0 0 0 0 0 0 0 0 
0 0 0 0 0 0 0 0 0 
0 0 0 0 0 0 0 0 0 
0 0 0 0 0 0 0 0 0 
0 0 0 0 0 0 0 0 0 
0 0 0 0 0 0 0 0 0 
0 0 0 0 0 0 0 0 0 
0 0 0 0 0 0 0 0 0 
0 0 0 0 0 0 0 0 0 
0 0 0 0 0 0 0 0 0 
0 0 0 0 0 0 0 0 0 
0 0 0 0 0 0 0 0 0 
0 0 0 0 0 0 0 0 0 
0 0 0 0 0 0 0 0 0 
0 0 0 0 0 0 0 0 0 
0 0 0 0 0 0 0 0 0 
0 0 0 0 0 0 0 0 0 
0 0 0 0 0 0 0 0 0 
0 0 0 0 0 0 0 0 0 
0 0 0 0 0 0 0 0 0 
0 0 0 0 0 0 0 0 0 
0 0 0 0 0 0 0 0 0 
0 0 0 0 0 0 0 0 0 
0 0 0 0 0 0 0 0 0 
0 0 0 0 0 0 0 0 0 
0 0 0 0 0 0 0 0 0 
0 0 0 0 0 0 0 0 0 
0 0 0 0 0 0 0 0 0 
0 0 0 0 0 0 0 0 0 
0 0 0 0 0 0 0 0 0 
0 0 0 0 0 0 0 0 0 
0 0 0 0 0 0 0 0 0 
0 0 0 0 0 0 0 0 0 
0 0 0 0 0 0 0 0 0 
0 0 0 0 0 0 0 0 0 
0 0 0 0 0 0 0 0 0 
0 0 0 0 0 0 0 0 0 
0 0 0 0 0 0 0 0 0 
0 0 0 0 0 0 0 0 0 
0 0 0 0 0 0 0 0 0 
0 0 0 0 0 0 0 0 0 
0 0 0 0 0 0 0 0 0 
0 0 0 0 0 0 0 0 0 
0 0 0 0 0 0 0 0 0 
0 0 0 0 0 0 0 0 0 
0 0 0 0 0 0 0 0 0 
0 0 0 0 0 0 0 0 0 
0 0 0 0 0 0 0 0 0 
0 0 0 0 0 0 0 0 0 
0 0 0 0 0 0 0 0 0 
0 0 0 0 0 0 0 0 0 
0 0 0 0 0 0 0 0 0 
0 0 0 0 0 0 0 0 0 
0 0 0 0 0 0 0 0 0 
0 0 0 0 0 0 0 0 0 
0 0 0 0 0 0 0 0 0 
0 0 0 0 0 0 0 0 0 
0 0 0 0 0 0 0 0 0 
0 0 0 0 0 0 0 0 0 
0 0 0 0 0 0 0 0 0 
0 0 0 0 0 0 0 0 0 
0 0 0 0 0 0 0 0 0 
0 0 0 0 0 0 0 0 0 
0 0 0 0 0 0 0 0 0 
0 0 0 0 0 0 0 0 0 
0 0 0 0 0 0 0 0 0 
0 0 0 0 0 0 0 0 0 
0 0 0 0 0 0 0 0 0 
0 0 0 0 0 0 0 0 0 
0 0 0 0 0 0 0 0 0 
0 0 0 0 0 0 0 0 0 
0 0 0 0 0 0 0 0 0 
0 0 0 0 0 0 0 0 0 
0 0 0 0 0 0 0 0 0 
0 0 0 0 0 0 0 0 0 
0 0 0 0 0 0 0 0 0 
0 0 0 0 0 0 0 0 0 
0 0 0 0 0 0 0 0 0 
0 0 0 0 0 0 0 0 0 
0 0 0 0 0 0 0 0 0 
0 0 0 0 0 0 0 0 0 
0 0 0 0 0 0 0 0 0 
0 0 0 0 0 0 0 0 0 
0 0 0 0 0 0 0 0 0 
0 0 0 0 0 0 0 0 0 
0 0 0 0 0 0 0 0 0 
0 0 0 0 0 0 0 0 0 
0 0 0 0 0 0 0 0 0 
0 
CellId 1 10000 long
0 0 0 0 0 0 0 0 0 
0 0 0 0 0 0 0 0 0 
0 0 0 0 0 0 0 0 0 
0 0 0 0 0 0 0 0 0 
0 0 0 0 0 0 0 0 0 
0 0 0 0 0 0 0 0 0 
0 0 0 0 0 0 0 0 0 
0 0 0 0 0 0 0 0 0 
0 0 0 0 0 0 0 0 0 
0 0 0 0 0 0 0 0 0 
0 0 0 0 0 0 0 0 0 
0 0 0 0 0 0 0 0 0 
0 0 0 0 0 0 0 0 0 
0 0 0 0 0 0 0 0 0 
0 0 0 0 0 0 0 0 0 
0 0 0 0 0 0 0 0 0 
0 0 0 0 0 0 0 0 0 
0 0 0 0 0 0 0 0 0 
0 0 0 0 0 0 0 0 0 
0 0 0 0 0 0 0 0 0 
0 0 0 0 0 0 0 0 0 
0 0 0 0 0 0 0 0 0 
0 0 0 0 0 0 0 0 0 
0 0 0 0 0 0 0 0 0 
0 0 0 0 0 0 0 0 0 
0 0 0 0 0 0 0 0 0 
0 0 0 0 0 0 0 0 0 
0 0 0 0 0 0 0 0 0 
0 0 0 0 0 0 0 0 0 
0 0 0 0 0 0 0 0 0 
0 0 0 0 0 0 0 0 0 
0 0 0 0 0 0 0 0 0 
0 0 0 0 0 0 0 0 0 
0 0 0 0 0 0 0 0 0 
0 0 0 0 0 0 0 0 0 
0 0 0 0 0 0 0 0 0 
0 0 0 0 0 0 0 0 0 
0 0 0 0 0 0 0 0 0 
0 0 0 0 0 0 0 0 0 
0 0 0 0 0 0 0 0 0 
0 0 0 0 0 0 0 0 0 
0 0 0 0 0 0 0 0 0 
0 0 0 0 0 0 0 0 0 
0 0 0 0 0 0 0 0 0 
0 0 0 0 0 0 0 0 0 
0 0 0 0 0 0 0 0 0 
0 0 0 0 0 0 0 0 0 
0 0 0 0 0 0 0 0 0 
0 0 0 0 0 0 0 0 0 
0 0 0 0 0 0 0 0 0 
0 0 0 0 0 0 0 0 0 
0 0 0 0 0 0 0 0 0 
0 0 0 0 0 0 0 0 0 
0 0 0 0 0 0 0 0 0 
0 0 0 0 0 0 0 0 0 
0 0 0 0 0 0 0 0 0 
0 0 0 0 0 0 0 0 0 
0 0 0 0 0 0 0 0 0 
0 0 0 0 0 0 0 0 0 
0 0 0 0 0 0 0 0 0 
0 0 0 0 0 0 0 0 0 
0 0 0 0 0 0 0 0 0 
0 0 0 0 0 0 0 0 0 
0 0 0 0 0 0 0 0 0 
0 0 0 0 0 0 0 0 0 
0 0 0 0 0 0 0 0 0 
0 0 0 0 0 0 0 0 0 
0 0 0 0 0 0 0 0 0 
0 0 0 0 0 0 0 0 0 
0 0 0 0 0 0 0 0 0 
0 0 0 0 0 0 0 0 0 
0 0 0 0 0 0 0 0 0 
0 0 0 0 0 0 0 0 0 
0 0 0 0 0 0 0 0 0 
0 0 0 0 0 0 0 0 0 
0 0 0 0 0 0 0 0 0 
0 0 0 0 0 0 0 0 0 
0 0 0 0 0 0 0 0 0 
0 0 0 0 0 0 0 0 0 
0 0 0 0 0 0 0 0 0 
0 0 0 0 0 0 0 0 0 
0 0 0 0 0 0 0 0 0 
0 0 0 0 0 0 0 0 0 
0 0 0 0 0 0 0 0 0 
0 0 0 0 0 0 0 0 0 
0 0 0 0 0 0 0 0 0 
0 0 0 0 0 0 0 0 0 
0 0 0 0 0 0 0 0 0 
0 0 0 0 0 0 0 0 0 
0 0 0 0 0 0 0 0 0 
0 0 0 0 0 0 0 0 0 
0 0 0 0 0 0 0 0 0 
0 0 0 0 0 0 0 0 0 
0 0 0 0 0 0 0 0 0 
0 0 0 0 0 0 0 0 0 
0 0 0 0 0 0 0 0 0 
0 0 0 0 0 0 0 0 0 
0 0 0 0 0 0 0 0 0 
0 0 0 0 0 0 0 0 0 
0 0 0 0 0 0 0 0 0 
0 0 0 0 0 0 0 0 0 
0 0 0 0 0 0 0 0 0 
0 0 0 0 0 0 0 0 0 
0 0 0 0 0 0 0 0 0 
0 0 0 0 0 0 0 0 0 
0 0 0 0 0 0 0 0 0 
0 0 0 0 0 0 0 0 0 
0 0 0 0 0 0 0 0 0 
0 0 0 0 0 0 0 0 0 
0 0 0 0 0 0 0 0 0 
0 0 0 0 0 0 0 0 0 
0 0 0 0 0 0 0 0 0 
0 0 0 0 0 0 0 0 0 
0 0 0 0 0 0 0 0 0 
0 0 0 0 0 0 0 0 0 
0 0 0 0 0 0 0 0 0 
0 0 0 0 0 0 0 0 0 
0 0 0 0 0 0 0 0 0 
0 0 0 0 0 0 0 0 0 
0 0 0 0 0 0 0 0 0 
0 0 0 0 0 0 0 0 0 
0 0 0 0 0 0 0 0 0 
0 0 0 0 0 0 0 0 0 
0 0 0 0 0 0 0 0 0 
0 0 0 0 0 0 0 0 0 
0 0 0 0 0 0 0 0 0 
0 0 0 0 0 0 0 0 0 
0 0 0 0 0 0 0 0 0 
0 0 0 0 0 0 0 0 0 
0 0 0 0 0 0 0 0 0 
0 0 0 0 0 0 0 0 0 
0 0 0 0 0 0 0 0 0 
0 0 0 0 0 0 0 0 0 
0 0 0 0 0 0 0 0 0 
0 0 0 0 0 0 0 0 0 
0 0 0 0 0 0 0 0 0 
0 0 0 0 0 0 0 0 0 
0 0 0 0 0 0 0 0 0 
0 0 0 0 0 0 0 0 0 
0 0 0 0 0 0 0 0 0 
0 0 0 0 0 0 0 0 0 
0 0 0 0 0 0 0 0 0 
0 0 0 0 0 0 0 0 0 
0 0 0 0 0 0 0 0 0 
0 0 0 0 0 0 0 0 0 
0 0 0 0 0 0 0 0 0 
0 0 0 0 0 0 0 0 0 
0 0 0 0 0 0 0 0 0 
0 0 0 0 0 0 0 0 0 
0 0 0 0 0 0 0 0 0 
0 0 0 0 0 0 0 0 0 
0 0 0 0 0 0 0 0 0 
0 0 0 0 0 0 0 0 0 
0 0 0 0 0 0 0 0 0 
0 0 0 0 0 0 0 0 0 
0 0 0 0 0 0 0 0 0 
0 0 0 0 0 0 0 0 0 
0 0 0 0 0 0 0 0 0 
0 0 0 0 0 0 0 0 0 
0 0 0 0 0 0 0 0 0 
0 0 0 0 0 0 0 0 0 
0 0 0 0 0 0 0 0 0 
0 0 0 0 0 0 0 0 0 
0 0 0 0 0 0 0 0 0 
0 0 0 0 0 0 0 0 0 
0 0 0 0 0 0 0 0 0 
0 0 0 0 0 0 0 0 0 
0 0 0 0 0 0 0 0 0 
0 0 0 0 0 0 0 0 0 
0 0 0 0 0 0 0 0 0 
0 1 1 1 1 1 1 2 2 
2 2 2 12 12 12 12 12 3 
3 3 4 4 4 4 4 5 5 
5 5 5 6 6 6 6 6 7 
7 7 7 7 17 17 17 17 0 
0 0 0 0 0 0 0 0 0 
0 0 0 0 0 0 0 0 0 
0 0 0 0 0 0 0 0 0 
0 0 0 0 0 0 0 0 0 
0 0 0 0 0 0 0 0 0 
0 0 0 0 0 0 0 0 0 
0 1 1 1 1 1 1 1 2 
2 2 2 2 12 12 12 12 12 
3 3 3 4 4 4 4 4 5 
5 5 5 5 6 6 6 6 6 
7 7 7 7 7 17 17 17 17 
17 0 0 0 0 0 0 0 0 
0 0 0 0 0 0 0 0 0 
0 0 0 0 0 0 0 0 0 
0 0 0 0 0 0 0 0 0 
0 0 0 0 0 0 0 0 0 
0 0 0 0 0 0 0 0 0 
0 9 1 1 1 1 1 1 1 
2 2 2 2 2 12 12 12 12 
12 3 3 3 4 4 4 4 4 
5 5 5 5 5 6 6 6 6 
6 7 7 7 7 7 7 17 17 
17 17 17 0 0 0 0 0 0 
0 0 0 0 0 0 0 0 0 
0 0 0 0 0 0 0 0 0 
0 0 0 0 0 0 0 0 0 
0 0 0 0 0 0 0 0 0 
0 0 0 0 0 0 0 0 0 
0 9 9 9 1 1 1 1 1 
1 2 2 2 2 2 12 12 12 
12 12 3 3 3 3 4 4 4 
4 5 5 5 5 5 6 6 6 
6 6 7 7 7 7 7 7 17 
17 17 17 17 17 0 0 0 0 
0 0 0 0 0 0 0 0 0 
0 0 0 0 0 0 0 0 0 
0 0 0 0 0 0 0 0 0 
0 0 0 0 0 0 0 0 0 
0 0 0 0 0 0 0 0 0 
0 9 9 9 9 9 1 1 1 
1 1 2 2 2 2 2 12 12 
12 12 12 3 3 3 3 3 4 
4 13 13 5 5 5 5 15 6 
6 6 6 7 7 7 7 7 7 
17 17 17 17 17 18 18 0 0 
0 0 0 0 0 0 0 0 0 
0 0 0 0 0 0 0 0 0 
0 0 0 0 0 0 0 0 0 
0 0 0 0 0 0 0 0 0 
0 0 0 0 0 0 0 0 0 
0 9 9 9 9 9 9 10 10 
10 10 10 2 2 2 2 2 12 
12 12 12 12 3 3 3 3 3 
3 13 13 13 13 13 15 15 15 
15 15 15 15 15 16 16 16 16 
16 16 18 18 18 18 18 18 18 
0 0 0 0 0 0 0 0 0 
0 0 0 0 0 0 0 0 0 
0 0 0 0 0 0 0 0 0 
0 0 0 0 0 0 0 0 0 
0 0 0 0 0 0 0 0 0 
0 8 9 9 9 9 9 9 10 
10 10 10 10 11 11 11 11 11 
23 23 23 23 23 3 3 3 3 
3 13 13 13 13 13 13 15 15 
15 15 15 15 15 15 16 16 16 
16 16 16 18 18 18 18 18 18 
18 18 0 0 0 0 0 0 0 
0 0 0 0 0 0 0 0 0 
0 0 0 0 0 0 0 0 0 
0 0 0 0 0 0 0 0 0 
0 0 0 0 0 0 0 0 0 
0 8 8 8 9 9 9 9 9 
10 10 10 10 10 11 11 11 11 
11 23 23 23 23 23 24 24 24 
24 24 13 13 13 13 13 13 15 
15 15 15 15 15 15 15 16 16 
16 16 16 16 18 18 18 18 18 
18 18 18 31 0 0 0 0 0 
0 0 0 0 0 0 0 0 0 
0 0 0 0 0 0 0 0 0 
0 0 0 0 0 0 0 0 0 
0 0 0 0 0 0 0 0 0 
0 8 8 8 8 8 9 9 9 
9 10 10 10 10 10 11 11 11 
11 11 23 23 23 23 23 24 24 
24 24 24 24 13 13 13 13 14 
14 15 15 15 15 15 15 15 28 
16 16 16 16 16 16 18 18 18 
18 18 18 31 31 31 0 0 0 
0 0 0 0 0 0 0 0 0 
0 0 0 0 0 0 0 0 0 
0 0 0 0 0 0 0 0 0 
0 0 0 0 0 0 0 0 0 
0 8 8 8 8 8 8 21 21 
21 21 10 10 10 10 10 11 11 
11 11 11 23 23 23 23 23 24 
24 24 24 24 24 25 25 25 14 
14 14 14 27 27 27 27 27 28 
28 28 28 16 16 16 16 29 29 
29 29 29 29 31 31 31 31 0 
0 0 0 0 0 0 0 0 0 
0 0 0 0 0 0 0 0 0 
0 0 0 0 0 0 0 0 0 
0 0 0 0 0 0 0 0 0 
0 8 8 8 8 8 8 21 21 
21 21 21 35 35 35 35 35 11 
11 11 11 11 23 23 23 23 23 
24 24 24 24 24 25 25 25 25 
14 14 14 14 27 27 27 27 27 
28 28 28 28 28 30 30 30 29 
29 29 29 29 29 31 31 31 31 
31 0 0 0 0 0 0 0 0 
0 0 0 0 0 0 0 0 0 
0 0 0 0 0 0 0 0 0 
0 0 0 0 0 0 0 0 0 
0 19 19 8 8 8 8 8 21 
21 21 21 21 35 35 35 35 35 
35 11 11 11 36 36 36 36 23 
23 23 24 24 24 25 25 25 25 
25 14 14 14 14 27 27 27 27 
27 28 28 28 28 28 30 30 30 
29 29 29 29 29 29 31 31 31 
31 31 31 0 0 0 0 0 0 
0 0 0 0 0 0 0 0 0 
0 0 0 0 0 0 0 0 0 
0 0 0 0 0 0 0 0 0 
0 19 19 19 19 20 20 20 20 
21 21 21 21 21 35 35 35 35 
35 35 22 22 22 36 36 36 36 
36 37 37 37 37 37 25 25 25 
25 25 14 14 14 14 26 27 27 
27 27 28 28 28 28 28 30 30 
30 30 29 29 29 29 29 31 31 
31 31 31 31 44 0 0 0 0 
0 0 0 0 0 0 0 0 0 
0 0 0 0 0 0 0 0 0 
0 0 0 0 0 0 0 0 0 
0 19 19 19 19 19 20 20 20 
20 20 21 21 21 21 35 35 35 
35 35 35 22 22 22 36 36 36 
36 36 37 37 37 37 37 37 25 
25 25 25 14 14 14 26 26 26 
27 40 40 40 28 28 28 28 30 
30 30 30 30 29 29 29 29 31 
31 31 31 31 44 44 44 0 0 
0 0 0 0 0 0 0 0 0 
0 0 0 0 0 0 0 0 0 
0 0 0 0 0 0 0 0 0 
0 19 19 19 19 19 19 20 20 
20 20 20 20 34 34 34 34 35 
35 35 35 22 22 22 22 36 36 
36 36 36 37 37 37 37 37 37 
25 25 25 25 14 14 26 26 26 
26 40 40 40 40 40 28 28 41 
41 30 30 30 30 30 30 30 43 
43 43 43 43 43 44 44 44 44 
0 0 0 0 0 0 0 0 0 
0 0 0 0 0 0 0 0 0 
0 0 0 0 0 0 0 0 0 
0 32 19 19 19 19 19 19 20 
20 20 20 20 20 34 34 34 34 
34 34 34 34 22 22 22 22 36 
36 36 36 36 37 37 37 37 37 
37 25 25 25 25 25 26 26 26 
26 26 40 40 40 40 40 54 41 
41 41 41 30 30 30 30 30 30 
43 43 43 43 43 43 44 44 44 
44 44 0 0 0 0 0 0 0 
0 0 0 0 0 0 0 0 0 
0 0 0 0 0 0 0 0 0 
0 32 32 32 32 32 19 19 19 
20 20 20 20 20 20 34 34 34 
34 34 34 34 34 22 22 22 22 
22 36 36 36 51 51 51 37 37 
37 37 38 38 38 38 38 26 26 
26 26 26 40 40 40 40 54 54 
41 41 41 41 41 42 42 42 42 
57 57 43 43 43 43 43 44 44 
44 44 44 44 0 0 0 0 0 
0 0 0 0 0 0 0 0 0 
0 0 0 0 0 0 0 0 0 
0 0 32 32 32 32 32 32 32 
33 33 33 33 33 33 33 34 34 
34 34 34 34 34 34 22 22 22 
22 22 50 50 50 51 51 51 51 
51 51 51 38 38 38 38 38 26 
26 26 26 26 40 40 40 54 54 
54 41 41 41 41 41 42 42 42 
42 57 57 57 43 43 43 43 44 
44 44 44 44 44 0 0 0 0 
0 0 0 0 0 0 0 0 0 
0 0 0 0 0 0 0 0 0 
0 0 0 32 32 32 32 32 32 
32 33 33 33 33 33 33 33 49 
49 49 49 49 49 49 49 22 22 
22 22 50 50 50 50 51 51 51 
51 51 51 51 38 38 38 38 38 
26 26 26 26 26 54 54 54 54 
54 54 41 41 41 41 56 42 42 
42 42 57 57 57 57 43 43 43 
59 59 59 59 59 59 0 0 0 
0 0 0 0 0 0 0 0 0 
0 0 0 0 0 0 0 0 0 
0 0 0 0 32 32 32 32 32 
32 32 33 33 33 33 33 33 33 
49 49 49 49 49 49 49 49 48 
48 48 48 50 50 50 50 50 51 
51 51 51 51 51 38 38 38 38 
38 26 39 39 39 39 54 54 54 
54 54 54 41 41 56 56 56 56 
42 42 42 57 57 57 57 43 43 
43 59 59 59 59 59 59 0 0 
0 0 0 0 0 0 0 0 0 
0 0 0 0 0 0 0 0 0 
0 0 0 0 0 45 45 46 46 
46 46 46 46 33 33 33 33 33 
33 49 49 49 49 49 49 49 48 
48 48 48 48 50 50 50 50 50 
51 51 51 51 51 51 38 38 38 
38 38 39 39 39 39 39 54 54 
54 54 54 54 56 56 56 56 56 
56 42 42 42 57 57 57 57 43 
43 59 59 59 59 59 59 59 0 
0 0 0 0 0 0 0 0 0 
0 0 0 0 0 0 0 0 0 