# vtk DataFile Version 5.1
vtk output
ASCII
DATASET STRUCTURED_POINTS
DIMENSIONS 100 100 1
SPACING 1 1 1
ORIGIN 0 0 0
POINT_DATA 10000
FIELD FieldData 3
CellType 1 10000 char
0 0 0 0 0 0 0 0 0 
0 0 0 0 0 0 0 0 0 
0 0 0 0 0 0 0 0 0 
0 0 0 0 0 0 0 0 0 
0 0 0 0 0 0 0 0 0 
0 0 0 0 0 0 0 0 0 
0 0 0 0 0 0 0 0 0 
0 0 0 0 0 0 0 0 0 
0 0 0 0 0 0 0 0 0 
0 0 0 0 0 0 0 0 0 
0 0 0 0 0 0 0 0 0 
0 0 0 0 0 0 0 0 0 
0 0 0 0 0 0 0 0 0 
0 0 0 0 0 0 0 0 0 
0 0 0 0 0 0 0 0 0 
0 0 0 0 0 0 0 0 0 
0 0 0 0 0 0 0 0 0 
0 0 0 0 0 0 0 0 0 
0 0 0 0 0 0 0 0 0 
0 0 0 0 0 0 0 0 0 
0 0 0 0 0 0 0 0 0 
0 0 0 0 0 0 0 0 0 
0 0 0 0 0 0 0 0 0 
0 0 0 0 0 0 0 0 0 
0 0 0 0 0 0 0 0 0 
0 0 0 0 0 0 0 0 0 
0 0 0 0 0 0 0 0 0 
0 0 0 0 0 0 0 0 0 
0 0 0 0 0 0 0 0 0 
0 0 0 0 0 0 0 0 0 
0 0 0 0 0 0 0 0 0 
0 0 0 0 0 0 0 0 0 
0 0 0 0 0 0 0 0 0 
0 0 0 0 0 0 0 0 0 
0 0 0 0 0 0 0 0 0 
0 0 0 0 0 0 0 0 0 
0 0 0 0 0 0 0 0 0 
0 0 0 0 0 0 0 0 0 
0 0 0 0 0 0 0 0 0 
0 0 0 0 0 0 0 0 0 
0 0 0 0 0 0 0 0 0 
0 0 0 0 0 0 0 0 0 
0 0 0 0 0 0 0 0 0 
0 0 0 0 0 0 0 0 0 
0 0 0 0 0 0 0 0 0 
0 0 0 0 0 0 0 0 0 
0 0 0 0 0 0 0 0 0 
0 0 0 0 0 0 0 0 0 
0 0 0 0 0 0 0 0 0 
0 0 0 0 0 0 0 0 0 
0 0 0 0 0 0 0 0 0 
0 0 0 0 0 0 0 0 0 
0 0 0 0 0 0 0 0 0 
0 0 0 0 0 0 0 0 0 
0 0 0 0 0 0 0 0 0 
0 0 0 0 0 0 0 0 0 
0 0 0 0 0 0 0 0 0 
0 0 0 0 0 0 0 0 0 
0 0 0 0 0 0 0 0 0 
0 0 0 0 0 0 0 0 0 
0 0 0 0 0 0 0 0 0 
0 0 0 0 0 0 0 0 0 
0 0 0 0 0 0 0 0 0 
0 0 0 0 0 0 0 0 0 
0 0 0 0 0 0 0 0 0 
0 0 0 0 0 0 0 0 0 
0 0 0 0 0 0 0 0 0 
0 0 0 0 0 0 0 0 0 
0 0 0 0 0 0 0 0 0 
0 0 0 0 0 0 0 0 0 
0 0 0 0 0 0 0 0 0 
0 0 0 0 0 0 0 0 0 
0 0 0 0 0 0 0 0 0 
0 0 0 0 0 0 0 0 0 
0 0 0 0 0 0 0 0 0 
0 0 0 0 0 0 0 0 0 
0 0 0 0 0 0 0 0 0 
0 0 0 0 0 0 0 0 0 
0 0 0 0 0 0 0 0 0 
0 0 0 0 0 0 0 0 0 
0 0 0 0 0 0 0 0 0 
0 0 0 0 0 0 0 0 0 
0 0 0 0 0 0 0 0 0 
0 0 0 0 0 0 0 0 0 
0 0 0 0 0 0 0 0 0 
0 0 0 0 0 0 0 0 0 
0 0 0 0 0 0 0 0 0 
0 0 0 0 0 0 0 0 0 
0 0 0 0 0 0 0 0 0 
0 0 0 0 0 0 0 0 0 
0 0 0 0 0 0 0 0 0 
0 0 0 0 0 0 0 0 0 
0 0 0 0 0 0 0 0 0 
0 0 0 0 0 0 0 0 0 
0 0 0 0 0 0 0 0 0 
0 0 0 0 0 0 0 0 0 
0 0 0 0 0 0 0 0 0 
0 0 0 0 0 0 0 0 0 
0 0 0 0 0 0 0 0 0 
0 0 0 0 0 0 0 0 0 
0 0 0 0 0 0 0 0 0 
0 0 0 0 0 0 0 0 0 
0 0 0 0 0 0 0 0 0 
0 0 0 0 0 0 0 0 0 
0 0 0 0 0 0 0 0 0 
0 0 0 0 0 0 0 0 0 
0 0 0 0 0 0 0 0 0 
0 0 0 0 0 0 0 0 0 
0 0 0 0 0 0 0 0 0 
0 0 0 0 0 0 0 0 0 
0 0 0 0 0 0 0 0 0 
0 0 0 0 0 0 0 0 0 
0 0 0 0 0 0 0 0 0 
0 0 0 0 0 0 0 0 0 
0 0 0 0 0 0 0 0 0 
0 0 0 0 0 0 0 0 0 
0 0 0 0 0 0 0 0 0 
0 0 0 0 0 0 0 0 0 
0 0 0 0 0 0 0 0 0 
0 0 0 0 0 0 0 0 0 
0 0 0 0 0 0 0 0 0 
0 0 0 0 0 0 0 0 0 
0 0 0 0 0 0 0 0 0 
0 0 0 0 0 0 0 0 0 
0 0 0 0 0 0 0 0 0 
0 0 0 0 0 0 0 0 0 
0 0 0 0 0 0 0 0 0 
0 0 0 0 0 0 0 0 0 
0 0 0 0 0 0 0 0 0 
0 0 0 0 0 0 0 0 0 
0 0 0 0 0 0 0 0 0 
0 0 0 0 0 0 0 0 0 
0 0 0 0 0 0 0 0 0 
0 0 0 0 0 0 0 0 0 
0 0 0 0 0 0 0 0 0 
0 0 0 0 0 0 0 0 0 
0 0 0 0 0 0 0 0 0 
0 0 0 0 0 0 0 0 0 
0 0 0 0 0 0 0 0 0 
0 0 0 0 0 0 0 0 0 
0 0 0 0 0 0 0 0 0 
0 0 0 0 0 0 0 0 0 
0 0 0 0 0 0 0 0 0 
0 0 0 0 0 0 0 0 0 
0 0 0 0 0 0 0 0 0 
0 0 0 0 0 0 0 0 0 
0 0 0 0 0 0 0 0 0 
0 0 0 0 0 0 0 0 0 
0 0 0 0 0 0 0 0 0 
0 0 0 0 0 0 0 0 0 
0 0 0 0 0 0 0 0 0 
0 0 0 0 0 0 0 0 0 
0 0 0 0 0 0 0 0 0 
0 0 0 0 0 0 0 0 0 
0 0 0 0 0 0 0 0 0 
0 0 0 0 0 0 0 0 0 
0 0 0 0 0 0 0 0 0 
0 0 0 0 0 0 0 0 0 
0 0 0 0 0 0 0 0 0 
0 0 0 0 0 0 0 0 0 
0 0 0 0 0 0 0 0 0 
0 0 0 0 0 0 0 0 0 
0 0 0 0 0 0 0 0 0 
0 0 0 0 0 0 0 0 0 
0 0 0 0 0 0 0 0 0 
0 0 0 0 0 0 0 0 0 
0 0 0 0 0 0 0 0 0 
0 0 0 0 0 0 0 0 0 
0 0 0 0 0 0 0 0 0 
0 0 0 0 0 0 0 0 0 
0 0 1 1 1 1 1 1 2 
2 2 2 2 2 2 2 2 2 
2 1 1 1 2 2 2 2 2 
1 1 1 2 2 2 2 2 1 
1 1 1 0 0 0 0 0 0 
0 0 0 0 0 0 0 0 0 
0 0 0 0 0 0 0 0 0 
0 0 0 0 0 0 0 0 0 
0 0 0 0 0 0 0 0 0 
0 0 0 0 0 0 0 0 0 
0 0 0 0 0 0 0 0 0 
0 0 1 1 1 1 1 1 1 
2 2 2 2 2 2 2 2 2 
2 2 1 1 1 2 2 2 2 
2 1 1 1 2 2 2 2 2 
1 1 1 1 2 2 2 1 1 
1 0 0 0 0 0 0 0 0 
0 0 0 0 0 0 0 0 0 
0 0 0 0 0 0 0 0 0 
0 0 0 0 0 0 0 0 0 
0 0 0 0 0 0 0 0 0 
0 0 0 0 0 0 0 0 0 
0 0 2 2 1 1 1 1 1 
1 2 2 2 2 2 1 2 2 
2 2 2 1 1 1 2 2 2 
2 2 1 1 1 2 2 2 2 
2 1 1 1 1 2 2 2 1 
1 1 1 0 0 0 0 0 0 
0 0 0 0 0 0 0 0 0 
0 0 0 0 0 0 0 0 0 
0 0 0 0 0 0 0 0 0 
0 0 0 0 0 0 0 0 0 
0 0 0 0 0 0 0 0 0 
0 0 2 2 2 2 1 1 1 
1 2 2 2 2 2 1 1 1 
2 2 2 1 1 1 1 2 2 
2 2 2 1 1 1 2 2 2 
2 1 1 1 1 1 2 2 2 
1 1 1 1 1 0 0 0 0 
0 0 0 0 0 0 0 0 0 
0 0 0 0 0 0 0 0 0 
0 0 0 0 0 0 0 0 0 
0 0 0 0 0 0 0 0 0 
0 0 0 0 0 0 0 0 0 
0 0 2 2 2 2 2 2 1 
1 2 2 2 2 2 1 1 1 
1 1 2 1 1 1 1 1 1 
2 2 2 2 1 1 1 1 2 
2 1 1 1 1 1 2 2 2 
2 1 1 1 1 1 1 0 0 
0 0 0 0 0 0 0 0 0 
0 0 0 0 0 0 0 0 0 
0 0 0 0 0 0 0 0 0 
0 0 0 0 0 0 0 0 0 
0 0 0 0 0 0 0 0 0 
2 2 2 2 2 2 2 2 2 
1 1 2 2 2 2 2 1 1 
1 1 1 2 2 2 1 1 1 
1 1 2 2 1 1 1 1 1 
2 2 2 1 1 1 2 2 2 
2 2 1 1 1 1 2 2 2 
0 0 0 0 0 0 0 0 0 
0 0 0 0 0 0 0 0 0 
0 0 0 0 0 0 0 0 0 
0 0 0 0 0 0 0 0 0 
0 0 0 0 0 0 0 0 0 
2 2 2 2 2 2 2 2 2 
1 1 1 1 1 1 2 1 1 
1 1 1 2 2 2 2 2 1 
1 1 2 2 2 1 1 1 1 
2 2 2 2 2 1 2 2 2 
2 2 2 1 1 1 2 2 2 
2 2 0 0 0 0 0 0 0 
0 0 0 0 0 0 0 0 0 
0 0 0 0 0 0 0 0 0 
0 0 0 0 0 0 0 0 0 
0 0 0 0 0 0 0 0 0 
2 2 2 2 2 1 2 2 2 
1 1 1 1 1 1 1 2 1 
1 1 1 1 2 2 2 2 2 
2 2 2 2 2 2 2 1 1 
2 2 2 2 2 2 1 2 2 
2 2 1 1 1 2 2 2 2 
2 2 2 2 0 0 0 0 0 
0 0 0 0 0 0 0 0 0 
0 0 0 0 0 0 0 0 0 
0 0 0 0 0 0 0 0 0 
0 0 0 0 0 0 0 0 0 
1 2 2 2 2 2 1 1 2 
1 1 1 1 1 1 1 2 2 
2 1 1 1 1 2 2 2 2 
2 1 2 2 2 2 2 2 2 
2 2 2 2 2 2 1 1 1 
2 2 1 1 1 1 1 2 2 
2 2 2 2 2 1 0 0 0 
0 0 0 0 0 0 0 0 0 
0 0 0 0 0 0 0 0 0 
0 0 0 0 0 0 0 0 0 
0 0 0 0 0 0 0 0 0 
1 1 1 2 2 2 2 1 1 
2 2 2 2 1 1 1 2 2 
2 2 2 1 1 1 2 2 2 
2 1 1 2 2 2 2 2 2 
1 1 2 2 2 2 1 1 1 
1 1 1 1 1 1 1 1 2 
2 2 2 2 2 1 1 1 0 
0 0 0 0 0 0 0 0 0 
0 0 0 0 0 0 0 0 0 
0 0 0 0 0 0 0 0 0 
0 0 0 0 0 0 0 0 0 
1 1 1 1 1 2 2 1 1 
1 2 2 2 2 2 1 1 2 
2 2 2 2 2 2 2 2 1 
1 1 1 1 1 2 2 2 2 
1 1 1 1 2 2 1 1 1 
1 1 1 1 1 1 1 1 1 
1 1 1 1 2 2 1 1 1 
1 0 0 0 0 0 0 0 0 
0 0 0 0 0 0 0 0 0 
0 0 0 0 0 0 0 0 0 
0 0 0 0 0 0 0 0 0 
1 1 1 1 1 1 2 1 1 
1 1 2 2 2 2 2 2 2 
2 2 2 2 2 1 2 2 2 
2 1 1 1 1 1 1 2 2 
1 1 1 1 1 1 1 1 1 
1 1 1 2 2 1 1 1 1 
2 1 1 1 1 1 2 1 1 
1 1 1 0 0 0 0 0 0 
0 0 0 0 0 0 0 0 0 
0 0 0 0 0 0 0 0 0 
0 0 0 0 0 0 0 0 0 
1 1 1 1 1 1 1 1 1 
1 1 1 2 2 2 2 2 1 
1 2 2 2 2 1 1 2 2 
2 2 2 1 1 1 1 1 1 
1 1 1 1 1 1 1 1 1 
1 1 1 2 2 2 2 2 2 
2 2 1 1 1 1 1 1 1 
1 1 1 1 1 0 0 0 0 
0 0 0 0 0 0 0 0 0 
0 0 0 0 0 0 0 0 0 
0 0 0 0 0 0 0 0 0 
2 2 1 1 1 2 2 2 1 
1 1 1 1 1 2 2 2 1 
1 1 1 2 2 1 1 1 2 
2 2 2 2 1 1 1 1 1 
2 2 1 1 1 1 1 2 2 
2 1 1 1 2 2 2 2 2 
2 2 2 2 1 1 1 1 1 
2 1 1 1 1 1 1 0 0 
0 0 0 0 0 0 0 0 0 
0 0 0 0 0 0 0 0 0 
0 0 0 0 0 0 0 0 0 
0 2 2 2 2 2 2 2 2 
1 1 1 1 1 1 1 2 1 
1 1 1 1 1 1 1 1 1 
2 2 2 2 2 1 2 2 2 
2 2 2 2 1 1 1 2 2 
2 2 1 1 1 1 2 2 2 
2 2 2 2 2 1 1 1 1 
2 2 2 2 2 2 2 2 0 
0 0 0 0 0 0 0 0 0 
0 0 0 0 0 0 0 0 0 
0 0 0 0 0 0 0 0 0 
0 0 2 2 2 2 2 2 2 
2 2 2 2 2 1 1 2 2 
1 1 1 1 1 1 1 1 1 
1 2 2 2 1 1 1 2 2 
2 2 2 2 2 1 1 2 2 
2 2 2 1 1 1 1 1 1 
1 1 1 1 2 2 1 1 1 
1 2 2 2 2 2 2 2 2 
0 0 0 0 0 0 0 0 0 
0 0 0 0 0 0 0 0 0 
0 0 0 0 0 0 0 0 0 
0 0 0 2 2 2 2 2 2 
1 1 2 2 2 2 2 2 2 
2 2 1 1 1 1 1 1 1 
1 1 2 2 1 1 1 1 2 
2 2 2 2 1 1 1 1 1 
2 2 2 2 1 1 1 1 1 
1 1 1 1 1 1 1 1 1 
1 1 1 2 2 2 2 2 2 
2 0 0 0 0 0 0 0 0 
0 0 0 0 0 0 0 0 0 
0 0 0 0 0 0 0 0 0 
0 0 0 0 1 1 1 1 1 
1 1 1 2 2 2 2 2 2 
2 2 2 2 1 1 1 2 2 
1 1 1 1 1 1 1 1 1 
2 2 2 2 1 1 1 1 1 
1 2 2 2 2 1 1 1 1 
2 2 1 1 1 1 1 1 1 
1 1 1 1 2 2 2 2 2 
2 2 2 0 0 0 0 0 0 
0 0 0 0 0 0 0 0 0 
0 0 0 0 0 0 0 0 0 
0 0 0 0 2 2 1 1 1 
1 1 1 1 2 2 2 2 1 
1 2 2 2 2 2 1 2 2 
2 2 2 2 2 1 1 1 1 
1 2 2 2 2 1 1 1 1 
1 1 2 2 2 2 1 1 2 
2 2 2 2 1 1 1 1 1 
1 1 1 1 1 2 2 2 2 
2 2 2 2 2 0 0 0 0 
0 0 0 0 0 0 0 0 0 
0 0 0 0 0 0 0 0 0 
0 0 0 0 2 2 2 2 1 
1 1 1 1 1 2 2 2 1 
1 1 2 2 2 2 2 1 2 
2 2 2 2 2 2 2 1 1 
1 1 1 1 1 1 1 1 1 
1 1 1 2 2 2 2 2 2 
2 2 2 2 2 2 1 1 2 
2 1 1 1 1 1 1 1 1 
1 1 2 2 2 2 2 0 0 
0 0 0 0 0 0 0 0 0 
0 0 0 0 0 0 0 0 0 
0 0 0 0 0 2 2 2 2 
2 1 1 1 1 1 2 2 1 
1 1 1 2 2 2 2 1 1 
1 2 2 2 2 2 2 2 2 
2 1 1 1 1 1 2 2 2 
2 2 2 1 1 1 2 2 1 
1 2 2 2 2 2 2 1 1 
2 2 2 2 2 2 1 1 1 
1 1 1 2 2 2 2 2 0 
0 0 0 0 0 0 0 0 0 
0 0 0 0 0 0 0 0 0 
0 0 0 0 0 0 2 2 2 
2 2 2 1 1 1 1 2 1 
1 1 1 1 1 2 2 1 1 
1 1 1 2 2 2 2 2 2 
2 1 1 1 1 1 1 2 2 
2 2 2 1 1 1 1 1 1 
1 1 1 2 2 2 2 1 1 
1 1 2 2 2 2 2 1 1 
1 1 1 1 1 2 2 2 2 
0 0 0 0 0 0 0 0 0 
0 0 0 0 0 0 0 0 0 
0 0 0 0 0 0 0 2 2 
2 2 2 2 1 1 2 2 2 
1 1 1 1 1 1 1 1 1 
1 1 1 1 1 1 1 1 1 
1 1 1 1 1 1 1 1 2 
2 2 2 2 1 1 1 1 1 
1 1 1 1 1 2 2 1 1 
1 1 1 2 2 2 2 2 1 
1 1 1 1 2 2 2 2 2 
2 0 0 0 0 0 0 0 0 
0 0 0 0 0 0 0 0 0 
0 0 0 0 0 0 0 0 2 
2 2 2 2 1 1 1 2 2 
2 2 1 1 1 1 1 2 2 
1 1 1 1 1 1 1 1 1 
1 1 1 2 2 1 1 1 2 
2 2 2 2 2 1 1 1 1 
1 1 1 1 1 1 1 1 1 
1 1 1 1 2 2 2 2 2 
1 1 1 1 2 2 2 2 2 
2 2 0 0 0 0 0 0 0 
0 0 0 0 0 0 0 0 0 
0 0 0 0 0 0 0 0 0 
1 1 2 2 1 1 1 1 2 
2 2 2 1 1 1 1 2 2 
2 2 1 1 1 1 2 2 1 
1 1 1 1 2 2 2 1 1 
2 2 2 2 2 1 1 1 1 
1 2 2 1 1 1 1 2 2 
1 1 1 1 1 2 2 2 2 
2 1 1 1 1 2 2 2 2 
2 2 2 0 0 0 0 0 0 
0 0 0 0 0 0 0 0 0 
0 0 0 0 0 0 0 0 0 
0 1 1 1 1 1 1 1 1 
2 2 2 2 1 1 1 1 2 
2 2 2 1 1 1 1 2 2 
2 1 1 1 1 2 2 2 2 
1 1 1 1 1 2 2 2 1 
1 2 2 2 2 1 1 2 2 
2 2 2 2 2 1 1 2 2 
2 2 1 2 2 2 2 2 2 
2 2 2 2 0 0 0 0 0 
0 0 0 0 0 0 0 0 0 
0 0 0 0 0 0 0 0 0 
0 0 1 1 1 1 1 1 1 
1 2 2 2 2 1 1 1 1 
2 2 2 2 1 1 1 1 2 
2 2 2 1 1 1 2 2 2 
2 1 1 1 1 1 2 2 2 
2 1 2 2 2 2 2 1 2 
2 2 2 2 2 1 1 1 1 
2 2 2 2 2 2 2 2 2 
2 2 2 2 2 0 0 0 0 
0 0 0 0 0 0 0 0 0 
0 0 0 0 0 0 0 0 0 
0 0 0 1 1 1 1 1 1 
1 2 2 2 2 2 1 1 1 
1 2 2 2 2 1 1 1 1 
2 2 2 2 2 1 2 2 2 
2 2 1 1 1 1 1 2 2 
2 2 2 2 2 2 2 2 2 
2 2 2 2 2 1 1 1 1 
1 1 1 1 2 2 2 2 2 
2 2 2 2 2 2 0 0 0 
0 0 0 0 0 0 0 0 0 
0 0 0 0 0 0 0 0 0 
0 0 0 0 1 1 1 1 1 
2 2 2 2 2 2 1 1 1 
1 1 2 2 2 2 1 1 1 
1 2 2 2 2 2 1 2 2 
2 2 2 1 1 1 1 1 2 
2 2 2 2 2 2 2 2 2 
2 2 2 2 2 1 1 1 1 
1 2 1 1 1 2 2 2 2 
2 2 2 2 2 2 2 0 0 
0 0 0 0 0 0 0 0 0 
0 0 0 0 0 0 0 0 0 
0 0 0 0 0 1 1 1 1 
1 1 1 1 2 2 1 1 1 
1 1 2 2 2 2 2 1 1 
1 2 2 2 2 2 1 1 1 
2 2 2 2 1 1 1 1 1 
2 2 2 2 1 1 2 2 2 
2 1 1 2 2 2 1 1 1 
1 2 2 1 1 1 1 2 2 
2 2 2 2 2 2 2 2 0 
0 0 0 0 0 0 0 0 0 
0 0 0 0 0 0 0 0 0 
0 0 0 0 0 0 1 1 1 
1 1 1 1 1 1 1 1 1 
1 1 1 2 2 2 2 2 1 
1 1 2 2 2 2 1 1 1 
1 1 2 2 2 2 2 2 2 
2 2 1 1 1 1 1 2 2 
2 2 1 1 1 1 1 2 2 
2 2 2 2 1 1 1 1 2 
2 2 2 2 2 2 2 2 2 
0 0 0 0 0 0 0 0 0 
0 0 0 0 0 0 0 0 0 
0 0 0 0 0 0 0 1 1 
1 1 1 1 1 1 1 1 1 
1 1 1 1 1 1 1 1 1 
1 1 1 1 2 2 1 1 1 
1 1 1 2 1 1 2 2 2 
2 2 2 1 1 1 1 1 2 
2 2 2 1 1 1 1 1 2 
2 2 2 2 2 1 1 1 1 
2 2 2 2 2 2 2 2 2 
2 0 0 0 0 0 0 0 0 
0 0 0 0 0 0 0 0 0 
0 0 0 0 0 0 0 0 1 
1 1 1 1 1 1 1 1 2 
1 1 1 1 1 1 1 1 1 
1 1 1 1 1 1 1 1 1 
1 1 1 2 2 1 1 2 2 
2 2 2 2 1 1 1 1 1 
2 2 2 2 1 1 1 1 1 
2 2 2 2 2 2 1 1 1 
1 2 2 2 2 2 2 2 2 
2 2 0 0 0 0 0 0 0 
0 0 0 0 0 0 0 0 0 
0 0 0 0 0 0 0 0 0 
1 1 1 1 2 1 1 1 1 
2 2 2 2 2 1 1 1 1 
2 2 1 1 1 1 2 2 1 
1 1 1 2 2 2 1 1 1 
2 2 2 2 2 1 1 1 1 
1 2 2 2 2 1 1 1 1 
1 1 2 2 2 2 1 1 1 
1 1 2 2 2 2 2 2 2 
2 2 2 0 0 0 0 0 0 
0 0 0 0 0 0 0 0 0 
0 0 0 0 0 0 0 0 0 
0 1 1 1 2 2 1 1 1 
1 2 2 2 2 2 1 1 1 
2 2 2 1 1 1 2 2 2 
2 1 1 2 2 2 2 1 1 
1 1 2 2 2 1 1 1 1 
1 1 1 2 2 1 1 1 1 
1 1 1 2 2 2 2 1 1 
1 1 1 1 2 2 2 2 2 
2 2 2 2 0 0 0 0 0 
0 0 0 0 0 0 0 0 0 
0 0 0 0 0 0 0 0 0 
0 0 2 2 2 2 2 2 1 
1 1 2 2 2 2 2 1 1 
2 2 2 2 1 1 2 2 2 
2 2 2 2 2 2 2 2 1 
1 1 1 1 1 2 2 2 2 
1 1 2 2 2 2 1 1 2 
2 2 2 2 2 2 2 2 2 
2 2 2 1 1 2 2 2 2 
2 2 2 2 2 0 0 0 0 
0 0 0 0 0 0 0 0 0 
0 0 0 0 0 0 0 0 0 
0 0 0 2 2 2 2 2 2 
2 1 2 2 2 2 2 2 1 
2 2 2 2 2 2 2 2 2 
2 2 2 1 1 2 2 2 2 
1 1 1 1 1 2 2 2 2 
2 2 2 2 2 2 2 2 2 
2 2 2 2 2 2 2 2 2 
2 2 2 2 2 2 2 2 2 
2 2 2 2 2 2 0 0 0 
0 0 0 0 0 0 0 0 0 
0 0 0 0 0 0 0 0 0 
0 0 0 0 2 2 2 2 2 
2 2 1 2 2 2 2 1 1 
1 2 2 2 2 2 1 1 2 
2 2 2 1 1 1 1 2 2 
2 1 1 1 1 1 2 2 2 
2 2 2 2 2 2 2 2 2 
2 2 2 2 2 1 2 2 2 
2 2 2 2 2 2 2 2 2 
2 2 2 2 2 2 2 0 0 
0 0 0 0 0 0 0 0 0 
0 0 0 0 0 0 0 0 0 
0 0 0 0 0 2 2 2 2 
1 1 1 1 1 2 1 1 1 
1 1 1 2 2 2 1 1 1 
1 2 2 1 1 1 1 1 1 
1 2 2 2 2 2 1 2 2 
2 2 2 2 2 2 2 2 2 
1 1 2 2 2 2 1 1 1 
1 1 2 2 2 2 2 2 2 
2 2 2 2 2 2 2 2 0 
0 0 0 0 0 0 0 0 0 
0 0 0 0 0 0 0 0 0 
0 0 0 0 0 0 1 1 1 
1 1 1 1 1 1 2 1 1 
1 1 1 1 2 1 1 1 1 
1 1 2 1 1 1 1 1 1 
1 1 2 2 2 2 2 2 2 
2 2 2 2 2 2 2 1 1 
1 1 1 2 2 2 1 1 1 
1 1 1 2 2 2 2 2 1 
2 2 2 2 2 2 2 2 2 
0 0 0 0 0 0 0 0 0 
0 0 0 0 0 0 0 0 0 
0 0 0 0 0 0 0 1 1 
1 1 1 1 1 1 2 2 2 
1 1 1 1 2 2 2 1 1 
1 1 2 2 2 1 1 1 1 
1 1 1 2 2 2 2 2 2 
1 1 1 1 2 2 2 2 1 
1 1 1 1 1 2 2 1 1 
1 1 1 1 2 2 2 2 1 
1 1 2 2 2 2 2 2 2 
2 0 0 0 0 0 0 0 0 
0 0 0 0 0 0 0 0 0 
0 0 0 0 0 0 0 0 1 
1 1 1 1 1 1 2 2 2 
2 1 1 1 2 2 2 2 1 
1 1 2 2 2 2 2 1 2 
2 2 2 2 2 2 2 2 2 
2 1 1 1 1 2 2 2 2 
1 1 1 1 1 1 2 2 2 
1 1 1 1 1 1 2 2 1 
1 1 1 2 2 2 2 2 2 
2 2 0 0 0 0 0 0 0 
0 0 0 0 0 0 0 0 0 
0 0 0 0 0 0 0 0 0 
2 2 2 2 2 2 2 2 2 
2 2 2 1 1 2 2 2 2 
1 1 1 2 2 2 2 2 2 
2 2 2 2 1 1 1 2 2 
2 2 1 1 1 1 1 2 2 
2 1 1 1 1 1 2 2 2 
2 2 1 1 1 1 1 2 1 
1 1 1 2 2 2 2 2 2 
2 2 2 0 0 0 0 0 0 
0 0 0 0 0 0 0 0 0 
0 0 0 0 0 0 0 0 0 
0 2 2 2 2 2 1 1 2 
2 2 2 2 1 2 2 2 2 
2 1 1 1 2 2 2 2 2 
2 2 2 2 2 1 1 1 1 
1 2 2 1 1 1 1 1 1 
2 1 1 1 1 1 2 2 2 
2 2 2 1 2 2 2 2 2 
1 1 1 1 2 2 2 2 2 
2 2 2 2 0 0 0 0 0 
0 0 0 0 0 0 0 0 0 
0 0 0 0 0 0 0 0 0 
0 0 2 2 2 2 1 1 1 
1 2 2 2 2 1 2 2 2 
2 2 1 1 1 2 2 2 2 
1 1 2 2 2 2 1 1 1 
1 1 1 2 1 1 1 1 1 
1 2 2 2 2 2 2 2 2 
2 2 2 1 1 1 2 2 2 
2 1 1 1 1 2 2 2 2 
1 2 2 2 2 0 0 0 0 
0 0 0 0 0 0 0 0 0 
0 0 0 0 0 0 0 0 0 
0 0 0 2 2 2 2 1 1 
1 1 1 2 2 1 1 1 1 
1 1 2 2 2 2 1 1 1 
1 1 1 1 2 2 1 1 1 
1 1 1 1 2 1 1 1 1 
1 2 2 2 2 2 1 1 1 
2 2 2 1 1 1 1 2 2 
2 2 2 1 1 1 2 2 2 
2 1 1 2 2 2 0 0 0 
0 0 0 0 0 0 0 0 0 
0 0 0 0 0 0 0 0 0 
0 0 0 0 2 2 2 2 1 
1 1 1 1 1 1 1 1 1 
1 1 2 2 2 2 2 1 1 
1 1 1 1 1 2 2 2 1 
1 1 1 1 2 2 2 2 1 
1 2 2 2 2 2 1 1 1 
1 1 2 2 1 1 1 1 2 
2 2 2 2 1 1 1 2 2 
2 1 1 1 1 1 1 0 0 
0 0 0 0 0 0 0 0 0 
0 0 0 0 0 0 0 0 0 
0 0 0 0 0 2 2 2 2 
1 1 1 1 1 2 1 1 1 
1 1 1 2 2 2 2 2 1 
1 1 1 1 1 2 2 2 2 
2 2 1 1 2 2 2 2 2 
2 2 2 2 2 2 2 1 1 
1 1 1 1 1 1 1 1 1 
2 2 2 2 2 1 1 1 2 
2 1 1 1 1 1 1 1 0 
0 0 0 0 0 0 0 0 0 
0 0 0 0 0 0 0 0 0 
0 0 0 0 0 0 1 1 1 
1 2 2 2 2 2 2 1 1 
1 1 1 1 2 2 2 2 2 
1 1 1 1 1 1 2 2 2 
2 2 2 2 2 2 2 2 2 
2 2 1 2 2 2 2 2 1 
1 1 1 1 1 2 1 1 1 
1 1 1 1 1 1 2 2 2 
2 1 1 1 1 1 1 1 1 
0 0 0 0 0 0 0 0 0 
0 0 0 0 0 0 0 0 0 
0 0 0 0 0 0 0 1 1 
1 1 1 2 2 2 2 2 1 
1 1 1 1 1 2 2 2 2 
2 1 1 1 1 1 1 2 2 
2 2 2 2 1 1 2 2 2 
2 2 1 1 1 1 1 1 2 
2 2 1 1 1 1 2 2 2 
2 2 1 1 1 1 1 2 2 
2 2 2 1 1 1 1 2 2 
2 0 0 0 0 0 0 0 0 
0 0 0 0 0 0 0 0 0 
0 0 0 0 0 0 0 0 1 
1 1 1 1 2 2 2 2 2 
2 2 2 2 2 2 1 1 1 
1 2 2 2 2 2 2 1 1 
1 1 2 2 2 1 1 1 2 
2 2 2 1 1 1 1 1 1 
2 2 2 2 2 1 2 2 2 
2 2 2 1 1 1 1 1 2 
2 2 2 2 2 1 1 2 2 
2 2 0 0 0 0 0 0 0 
0 0 0 0 0 0 0 0 0 
0 0 0 0 0 0 0 0 0 
1 1 1 1 1 2 2 2 2 
2 1 2 2 2 2 2 1 1 
1 1 2 2 2 2 2 2 1 
1 1 1 2 2 2 2 1 1 
1 1 1 2 1 1 1 1 1 
1 2 2 2 2 2 1 2 2 
2 2 2 2 1 1 1 1 1 
2 2 2 2 2 2 2 2 2 
2 2 2 0 0 0 0 0 0 
0 0 0 0 0 0 0 0 0 
0 0 0 0 0 0 0 0 0 
0 1 1 1 1 1 2 2 2 
1 1 1 2 2 2 2 2 1 
1 1 1 2 2 2 2 2 2 
1 1 1 1 2 2 2 2 1 
1 1 1 1 2 2 1 1 1 
1 1 2 2 2 2 1 1 1 
2 2 2 2 2 1 1 1 1 
1 2 2 2 2 1 1 2 2 
2 2 2 2 0 0 0 0 0 
0 0 0 0 0 0 0 0 0 
0 0 0 0 0 0 0 0 0 
0 0 1 1 1 1 1 1 1 
1 1 1 1 2 2 2 2 2 
1 1 1 1 2 2 2 2 2 
1 1 1 1 1 1 2 2 2 
1 1 1 1 1 2 2 2 2 
1 1 1 2 2 2 1 1 1 
1 1 2 2 2 2 1 1 1 
1 1 1 1 1 1 1 1 2 
2 2 2 2 2 0 0 0 0 
0 0 0 0 0 0 0 0 0 
0 0 0 0 0 0 0 0 0 
0 0 0 2 2 2 2 2 1 
1 1 1 1 1 1 2 2 2 
1 1 1 1 1 1 2 2 2 
1 1 1 1 1 1 1 2 2 
2 1 1 1 1 1 2 2 2 
2 1 1 1 2 2 1 1 1 
1 1 2 2 1 1 1 2 2 
2 2 2 1 1 1 1 1 1 
2 1 1 1 1 1 0 0 0 
0 0 0 0 0 0 0 0 0 
0 0 0 0 0 0 0 0 0 
0 0 0 0 2 2 2 2 2 
1 1 1 1 1 1 1 1 2 
1 1 1 1 1 1 1 2 2 
2 1 1 1 1 1 1 1 2 
2 2 1 1 1 1 1 2 2 
2 2 2 1 2 2 1 1 1 
1 1 2 2 2 1 1 1 2 
2 2 2 2 1 1 1 1 1 
1 1 1 1 1 1 1 0 0 
0 0 0 0 0 0 0 0 0 
0 0 0 0 0 0 0 0 0 
0 0 0 0 0 2 2 2 2 
2 2 1 2 2 2 2 2 2 
2 1 2 2 2 2 1 2 2 
2 2 2 2 2 2 2 2 2 
2 2 2 2 1 1 1 1 2 
2 2 2 2 2 2 2 2 1 
1 1 2 2 2 2 1 1 1 
2 2 2 2 2 1 1 1 1 
1 2 2 1 1 1 1 1 0 
0 0 0 0 0 0 0 0 0 
0 0 0 0 0 0 0 0 0 
0 0 0 0 0 0 2 2 2 
2 2 2 1 2 2 2 2 2 
2 2 2 2 2 2 2 2 2 
2 2 2 2 2 2 2 2 2 
2 2 2 2 2 2 2 2 2 
2 1 1 1 1 2 2 2 2 
2 1 2 2 2 2 2 1 1 
1 2 2 2 2 2 2 1 1 
1 2 2 2 1 1 1 1 1 
0 0 0 0 0 0 0 0 0 
0 0 0 0 0 0 0 0 0 
0 0 0 0 0 0 0 2 2 
2 2 2 1 1 1 2 2 2 
2 2 2 2 2 2 2 2 2 
2 2 2 2 2 2 2 2 2 
2 2 2 2 2 2 2 2 2 
2 2 1 1 1 1 2 2 2 
2 2 1 2 2 2 2 2 1 
1 1 2 2 2 2 1 1 1 
2 2 2 2 2 2 1 1 1 
1 0 0 0 0 0 0 0 0 
0 0 0 0 0 0 0 0 0 
0 0 0 0 0 0 0 0 0 
2 2 2 1 1 1 1 1 2 
2 2 2 2 2 2 2 2 2 
2 2 2 2 2 2 2 2 2 
2 2 2 2 2 2 2 2 2 
2 2 2 1 1 1 1 2 2 
2 2 1 1 1 1 1 2 2 
1 1 1 2 2 2 1 1 1 
1 2 2 2 2 2 2 2 1 
1 0 0 0 0 0 0 0 0 
0 0 0 0 0 0 0 0 0 
0 0 0 0 0 0 0 0 0 
0 0 2 1 1 1 1 1 1 
1 2 2 2 1 1 2 2 2 
2 1 1 1 1 2 2 2 2 
1 1 1 1 2 2 2 1 1 
2 2 2 2 1 1 1 1 1 
2 2 2 1 1 1 1 1 1 
2 1 1 1 2 2 1 1 1 
1 1 2 2 2 2 2 2 2 
2 0 0 0 0 0 0 0 0 
0 0 0 0 0 0 0 0 0 
0 0 0 0 0 0 0 0 0 
0 0 0 0 1 1 1 1 1 
1 1 2 2 2 1 1 1 1 
1 1 1 1 1 1 2 2 2 
2 1 1 1 1 2 2 2 1 
1 1 2 2 1 1 1 1 1 
1 1 2 1 1 1 1 1 1 
2 2 2 1 1 1 1 1 1 
1 1 1 1 1 1 1 1 2 
2 0 0 0 0 0 0 0 0 
0 0 0 0 0 0 0 0 0 
0 0 0 0 0 0 0 0 0 
0 0 0 0 0 0 1 1 1 
1 1 2 2 2 2 2 1 1 
1 1 1 1 1 1 1 2 2 
2 2 1 1 1 1 2 2 2 
2 1 1 1 2 2 2 2 1 
1 1 1 2 1 1 1 1 1 
2 2 2 2 1 1 2 2 1 
1 1 1 2 1 1 1 1 1 
1 0 0 0 0 0 0 0 0 
0 0 0 0 0 0 0 0 0 
0 0 0 0 0 0 0 0 0 
0 0 0 0 0 0 0 0 1 
1 1 2 2 2 2 2 2 2 
1 1 1 1 2 2 2 2 2 
2 2 1 1 1 1 1 2 2 
2 2 1 1 1 2 2 2 2 
2 1 1 2 2 2 2 1 1 
2 2 2 2 2 2 2 2 2 
2 2 2 2 2 1 1 1 1 
1 0 0 0 0 0 0 0 0 
0 0 0 0 0 0 0 0 0 
0 0 0 0 0 0 0 0 0 
0 0 0 0 0 0 0 0 0 
0 1 2 2 2 2 2 2 2 
2 1 1 1 2 2 2 2 2 
2 1 1 1 1 1 1 1 2 
2 2 2 1 1 1 2 2 2 
2 2 2 2 2 2 2 2 2 
2 2 2 2 2 2 1 2 2 
2 2 2 2 2 2 1 1 1 
1 0 0 0 0 0 0 0 0 
0 0 0 0 0 0 0 0 0 
0 0 0 0 0 0 0 0 0 
0 0 0 0 0 0 0 0 0 
0 0 0 2 2 2 2 1 1 
1 1 2 2 2 2 2 2 2 
2 2 1 1 1 1 1 1 1 
2 2 2 2 1 1 1 2 2 
2 2 2 1 1 2 2 2 2 
2 2 1 1 1 1 1 1 2 
2 2 2 2 2 2 2 1 1 
1 0 0 0 0 0 0 0 0 
0 0 0 0 0 0 0 0 0 
0 0 0 0 0 0 0 0 0 
0 0 0 0 0 0 0 0 0 
0 0 0 0 0 2 2 1 1 
1 1 1 2 2 2 2 2 2 
2 2 2 2 2 2 2 2 2 
1 2 2 2 1 1 1 1 2 
2 2 2 1 1 1 1 2 2 
2 2 2 1 1 1 1 1 1 
2 1 1 1 1 1 1 1 1 
1 0 0 0 0 0 0 0 0 
0 0 0 0 0 0 0 0 0 
0 0 0 0 0 0 0 0 0 
0 0 0 0 0 0 0 0 0 
0 0 0 0 0 0 0 1 1 
1 1 1 1 2 2 2 1 1 
1 1 1 1 2 2 2 2 2 
2 2 2 2 2 1 1 1 1 
1 2 2 1 1 1 1 1 1 
2 2 2 1 1 1 1 1 1 
2 2 2 1 1 1 1 1 1 
1 0 0 0 0 0 0 0 0 
0 0 0 0 0 0 0 0 0 
0 0 0 0 0 0 0 0 0 
0 0 0 0 0 0 0 0 0 
0 0 0 0 0 0 0 0 0 
1 1 1 1 1 2 2 2 1 
1 1 1 1 1 2 2 2 2 
2 2 1 2 2 2 2 2 1 
1 2 2 2 1 1 1 1 1 
1 1 2 1 1 1 1 1 1 
1 2 2 2 2 1 1 1 1 
1 0 0 0 0 0 0 0 0 
0 0 0 0 0 0 0 0 0 
0 0 0 0 0 0 0 0 0 
0 0 0 0 0 0 0 0 0 
0 0 0 0 0 0 0 0 0 
0 0 1 1 1 1 2 2 2 
1 1 1 1 1 1 2 2 2 
2 2 1 1 2 2 2 2 2 
1 1 2 2 2 2 1 1 1 
1 1 1 2 1 1 1 1 1 
1 1 2 2 2 2 2 1 1 
1 0 0 0 0 0 0 0 0 
0 0 0 0 0 0 0 0 0 
0 0 0 0 0 0 0 0 0 
0 0 0 0 0 0 0 0 0 
0 0 0 0 0 0 0 0 0 
0 0 0 0 1 1 1 2 2 
2 1 1 1 1 2 2 2 1 
1 1 1 1 1 2 2 2 2 
1 1 1 1 2 2 2 2 1 
1 1 1 2 2 2 1 1 2 
2 2 2 2 2 2 2 2 2 
1 0 0 0 0 0 0 0 0 
0 0 0 0 0 0 0 0 0 
0 0 0 0 0 0 0 0 0 
0 0 0 0 0 0 0 0 0 
0 0 0 0 0 0 0 0 0 
0 0 0 0 0 0 1 2 2 
2 2 1 1 1 2 2 2 2 
1 1 1 1 1 1 2 2 2 
2 1 1 1 1 2 2 2 2 
2 1 1 2 2 2 2 2 2 
2 2 2 2 2 2 2 2 2 
2 0 0 0 0 0 0 0 0 
0 0 0 0 0 0 0 0 0 
0 0 0 0 0 0 0 0 0 
0 0 0 0 0 0 0 0 0 
0 0 0 0 0 0 0 0 0 
0 0 0 0 0 0 0 0 2 
2 2 2 1 1 2 2 2 2 
2 2 1 1 1 1 1 2 2 
2 1 1 1 1 1 1 2 2 
2 2 2 2 2 2 2 2 2 
2 2 2 2 2 2 0 0 0 
0 0 0 0 0 0 0 0 0 
0 0 0 0 0 0 0 0 0 
0 0 0 0 0 0 0 0 0 
0 0 0 0 0 0 0 0 0 
0 0 0 0 0 0 0 0 0 
0 0 0 0 0 0 0 0 0 
0 2 2 2 1 1 2 2 2 
2 2 2 1 1 1 1 1 2 
2 2 1 1 1 1 1 1 2 
2 2 2 2 2 2 2 2 2 
2 2 2 2 2 2 0 0 0 
0 0 0 0 0 0 0 0 0 
0 0 0 0 0 0 0 0 0 
0 0 0 0 0 0 0 0 0 
0 0 0 0 0 0 0 0 0 
0 0 0 0 0 0 0 0 0 
0 0 0 0 0 0 0 0 0 
0 0 0 2 2 1 1 2 2 
2 2 2 2 1 1 1 1 1 
2 2 2 1 1 1 1 1 1 
2 2 2 2 2 2 2 2 2 
2 2 2 2 2 2 0 0 0 
0 0 0 0 0 0 0 0 0 
0 0 0 0 0 0 0 0 0 
0 0 0 0 0 0 0 0 0 
0 0 0 0 0 0 0 0 0 
0 0 0 0 0 0 0 0 0 
0 0 0 0 0 0 0 0 0 
0 0 0 0 0 0 0 0 0 
0 0 0 0 0 0 0 0 0 
0 0 0 0 0 0 0 0 0 
0 0 0 0 0 0 0 0 0 
0 0 0 0 0 0 0 0 0 
0 0 0 0 0 0 0 0 0 
0 0 0 0 0 0 0 0 0 
0 0 0 0 0 0 0 0 0 
0 0 0 0 0 0 0 0 0 
0 0 0 0 0 0 0 0 0 
0 0 0 0 0 0 0 0 0 
0 0 0 0 0 0 0 0 0 
0 0 0 0 0 0 0 0 0 
0 0 0 0 0 0 0 0 0 
0 0 0 0 0 0 0 0 0 
0 0 0 0 0 0 0 0 0 
0 0 0 0 0 0 0 0 0 
0 0 0 0 0 0 0 0 0 
0 0 0 0 0 0 0 0 0 
0 0 0 0 0 0 0 0 0 
0 0 0 0 0 0 0 0 0 
0 0 0 0 0 0 0 0 0 
0 0 0 0 0 0 0 0 0 
0 0 0 0 0 0 0 0 0 
0 0 0 0 0 0 0 0 0 
0 0 0 0 0 0 0 0 0 
0 0 0 0 0 0 0 0 0 
0 0 0 0 0 0 0 0 0 
0 0 0 0 0 0 0 0 0 
0 0 0 0 0 0 0 0 0 
0 0 0 0 0 0 0 0 0 
0 0 0 0 0 0 0 0 0 
0 0 0 0 0 0 0 0 0 
0 0 0 0 0 0 0 0 0 
0 0 0 0 0 0 0 0 0 
0 0 0 0 0 0 0 0 0 
0 0 0 0 0 0 0 0 0 
0 0 0 0 0 0 0 0 0 
0 0 0 0 0 0 0 0 0 
0 0 0 0 0 0 0 0 0 
0 0 0 0 0 0 0 0 0 
0 0 0 0 0 0 0 0 0 
0 0 0 0 0 0 0 0 0 
0 0 0 0 0 0 0 0 0 
0 0 0 0 0 0 0 0 0 
0 0 0 0 0 0 0 0 0 
0 0 0 0 0 0 0 0 0 
0 0 0 0 0 0 0 0 0 
0 0 0 0 0 0 0 0 0 
0 0 0 0 0 0 0 0 0 
0 0 0 0 0 0 0 0 0 
0 0 0 0 0 0 0 0 0 
0 0 0 0 0 0 0 0 0 
0 0 0 0 0 0 0 0 0 
0 0 0 0 0 0 0 0 0 
0 0 0 0 0 0 0 0 0 
0 0 0 0 0 0 0 0 0 
0 0 0 0 0 0 0 0 0 
0 0 0 0 0 0 0 0 0 
0 0 0 0 0 0 0 0 0 
0 0 0 0 0 0 0 0 0 
0 0 0 0 0 0 0 0 0 
0 0 0 0 0 0 0 0 0 
0 0 0 0 0 0 0 0 0 
0 0 0 0 0 0 0 0 0 
0 0 0 0 0 0 0 0 0 
0 0 0 0 0 0 0 0 0 
0 0 0 0 0 0 0 0 0 
0 0 0 0 0 0 0 0 0 
0 0 0 0 0 0 0 0 0 
0 0 0 0 0 0 0 0 0 
0 0 0 0 0 0 0 0 0 
0 0 0 0 0 0 0 0 0 
0 0 0 0 0 0 0 0 0 
0 0 0 0 0 0 0 0 0 
0 0 0 0 0 0 0 0 0 
0 0 0 0 0 0 0 0 0 
0 0 0 0 0 0 0 0 0 
0 0 0 0 0 0 0 0 0 
0 0 0 0 0 0 0 0 0 
0 0 0 0 0 0 0 0 0 
0 0 0 0 0 0 0 0 0 
0 0 0 0 0 0 0 0 0 
0 0 0 0 0 0 0 0 0 
0 0 0 0 0 0 0 0 0 
0 0 0 0 0 0 0 0 0 
0 0 0 0 0 0 0 0 0 
0 0 0 0 0 0 0 0 0 
0 0 0 0 0 0 0 0 0 
0 0 0 0 0 0 0 0 0 
0 0 0 0 0 0 0 0 0 
0 0 0 0 0 0 0 0 0 
0 0 0 0 0 0 0 0 0 
0 0 0 0 0 0 0 0 0 
0 0 0 0 0 0 0 0 0 
0 0 0 0 0 0 0 0 0 
0 0 0 0 0 0 0 0 0 
0 0 0 0 0 0 0 0 0 
0 0 0 0 0 0 0 0 0 
0 0 0 0 0 0 0 0 0 
0 0 0 0 0 0 0 0 0 
0 0 0 0 0 0 0 0 0 
0 0 0 0 0 0 0 0 0 
0 0 0 0 0 0 0 0 0 
0 0 0 0 0 0 0 0 0 
0 0 0 0 0 0 0 0 0 
0 0 0 0 0 0 0 0 0 
0 0 0 0 0 0 0 0 0 
0 
CellId 1 10000 long
0 0 0 0 0 0 0 0 0 
0 0 0 0 0 0 0 0 0 
0 0 0 0 0 0 0 0 0 
0 0 0 0 0 0 0 0 0 
0 0 0 0 0 0 0 0 0 
0 0 0 0 0 0 0 0 0 
0 0 0 0 0 0 0 0 0 
0 0 0 0 0 0 0 0 0 
0 0 0 0 0 0 0 0 0 
0 0 0 0 0 0 0 0 0 
0 0 0 0 0 0 0 0 0 
0 0 0 0 0 0 0 0 0 
0 0 0 0 0 0 0 0 0 
0 0 0 0 0 0 0 0 0 
0 0 0 0 0 0 0 0 0 
0 0 0 0 0 0 0 0 0 
0 0 0 0 0 0 0 0 0 
0 0 0 0 0 0 0 0 0 
0 0 0 0 0 0 0 0 0 
0 0 0 0 0 0 0 0 0 
0 0 0 0 0 0 0 0 0 
0 0 0 0 0 0 0 0 0 
0 0 0 0 0 0 0 0 0 
0 0 0 0 0 0 0 0 0 
0 0 0 0 0 0 0 0 0 
0 0 0 0 0 0 0 0 0 
0 0 0 0 0 0 0 0 0 
0 0 0 0 0 0 0 0 0 
0 0 0 0 0 0 0 0 0 
0 0 0 0 0 0 0 0 0 
0 0 0 0 0 0 0 0 0 
0 0 0 0 0 0 0 0 0 
0 0 0 0 0 0 0 0 0 
0 0 0 0 0 0 0 0 0 
0 0 0 0 0 0 0 0 0 
0 0 0 0 0 0 0 0 0 
0 0 0 0 0 0 0 0 0 
0 0 0 0 0 0 0 0 0 
0 0 0 0 0 0 0 0 0 
0 0 0 0 0 0 0 0 0 
0 0 0 0 0 0 0 0 0 
0 0 0 0 0 0 0 0 0 
0 0 0 0 0 0 0 0 0 
0 0 0 0 0 0 0 0 0 
0 0 0 0 0 0 0 0 0 
0 0 0 0 0 0 0 0 0 
0 0 0 0 0 0 0 0 0 
0 0 0 0 0 0 0 0 0 
0 0 0 0 0 0 0 0 0 
0 0 0 0 0 0 0 0 0 
0 0 0 0 0 0 0 0 0 
0 0 0 0 0 0 0 0 0 
0 0 0 0 0 0 0 0 0 
0 0 0 0 0 0 0 0 0 
0 0 0 0 0 0 0 0 0 
0 0 0 0 0 0 0 0 0 
0 0 0 0 0 0 0 0 0 
0 0 0 0 0 0 0 0 0 
0 0 0 0 0 0 0 0 0 
0 0 0 0 0 0 0 0 0 
0 0 0 0 0 0 0 0 0 
0 0 0 0 0 0 0 0 0 
0 0 0 0 0 0 0 0 0 
0 0 0 0 0 0 0 0 0 
0 0 0 0 0 0 0 0 0 
0 0 0 0 0 0 0 0 0 
0 0 0 0 0 0 0 0 0 
0 0 0 0 0 0 0 0 0 
0 0 0 0 0 0 0 0 0 
0 0 0 0 0 0 0 0 0 
0 0 0 0 0 0 0 0 0 
0 0 0 0 0 0 0 0 0 
0 0 0 0 0 0 0 0 0 
0 0 0 0 0 0 0 0 0 
0 0 0 0 0 0 0 0 0 
0 0 0 0 0 0 0 0 0 
0 0 0 0 0 0 0 0 0 
0 0 0 0 0 0 0 0 0 
0 0 0 0 0 0 0 0 0 
0 0 0 0 0 0 0 0 0 
0 0 0 0 0 0 0 0 0 
0 0 0 0 0 0 0 0 0 
0 0 0 0 0 0 0 0 0 
0 0 0 0 0 0 0 0 0 
0 0 0 0 0 0 0 0 0 
0 0 0 0 0 0 0 0 0 
0 0 0 0 0 0 0 0 0 
0 0 0 0 0 0 0 0 0 
0 0 0 0 0 0 0 0 0 
0 0 0 0 0 0 0 0 0 
0 0 0 0 0 0 0 0 0 
0 0 0 0 0 0 0 0 0 
0 0 0 0 0 0 0 0 0 
0 0 0 0 0 0 0 0 0 
0 0 0 0 0 0 0 0 0 
0 0 0 0 0 0 0 0 0 
0 0 0 0 0 0 0 0 0 
0 0 0 0 0 0 0 0 0 
0 0 0 0 0 0 0 0 0 
0 0 0 0 0 0 0 0 0 
0 0 0 0 0 0 0 0 0 
0 0 0 0 0 0 0 0 0 
0 0 0 0 0 0 0 0 0 
0 0 0 0 0 0 0 0 0 
0 0 0 0 0 0 0 0 0 
0 0 0 0 0 0 0 0 0 
0 0 0 0 0 0 0 0 0 
0 0 0 0 0 0 0 0 0 
0 0 0 0 0 0 0 0 0 
0 0 0 0 0 0 0 0 0 
0 0 0 0 0 0 0 0 0 
0 0 0 0 0 0 0 0 0 
0 0 0 0 0 0 0 0 0 
0 0 0 0 0 0 0 0 0 
0 0 0 0 0 0 0 0 0 
0 0 0 0 0 0 0 0 0 
0 0 0 0 0 0 0 0 0 
0 0 0 0 0 0 0 0 0 
0 0 0 0 0 0 0 0 0 
0 0 0 0 0 0 0 0 0 
0 0 0 0 0 0 0 0 0 
0 0 0 0 0 0 0 0 0 
0 0 0 0 0 0 0 0 0 
0 0 0 0 0 0 0 0 0 
0 0 0 0 0 0 0 0 0 
0 0 0 0 0 0 0 0 0 
0 0 0 0 0 0 0 0 0 
0 0 0 0 0 0 0 0 0 
0 0 0 0 0 0 0 0 0 
0 0 0 0 0 0 0 0 0 
0 0 0 0 0 0 0 0 0 
0 0 0 0 0 0 0 0 0 
0 0 0 0 0 0 0 0 0 
0 0 0 0 0 0 0 0 0 
0 0 0 0 0 0 0 0 0 
0 0 0 0 0 0 0 0 0 
0 0 0 0 0 0 0 0 0 
0 0 0 0 0 0 0 0 0 
0 0 0 0 0 0 0 0 0 
0 0 0 0 0 0 0 0 0 
0 0 0 0 0 0 0 0 0 
0 0 0 0 0 0 0 0 0 
0 0 0 0 0 0 0 0 0 
0 0 0 0 0 0 0 0 0 
0 0 0 0 0 0 0 0 0 
0 0 0 0 0 0 0 0 0 
0 0 0 0 0 0 0 0 0 
0 0 0 0 0 0 0 0 0 
0 0 0 0 0 0 0 0 0 
0 0 0 0 0 0 0 0 0 
0 0 0 0 0 0 0 0 0 
0 0 0 0 0 0 0 0 0 
0 0 0 0 0 0 0 0 0 
0 0 0 0 0 0 0 0 0 
0 0 0 0 0 0 0 0 0 
0 0 0 0 0 0 0 0 0 
0 0 0 0 0 0 0 0 0 
0 0 0 0 0 0 0 0 0 
0 0 0 0 0 0 0 0 0 
0 0 0 0 0 0 0 0 0 
0 0 0 0 0 0 0 0 0 
0 0 0 0 0 0 0 0 0 
0 0 0 0 0 0 0 0 0 
0 0 0 0 0 0 0 0 0 
0 0 0 0 0 0 0 0 0 
0 0 0 0 0 0 0 0 0 
0 0 0 0 0 0 0 0 0 
0 0 0 0 0 0 0 0 0 
0 0 0 0 0 0 0 0 0 
0 0 0 0 0 0 0 0 0 
0 0 1 1 1 1 1 1 2 
2 2 2 2 3 3 3 3 3 
3 13 13 13 5 5 5 5 5 
4 4 4 6 6 6 6 6 7 
7 7 7 0 0 0 0 0 0 
0 0 0 0 0 0 0 0 0 
0 0 0 0 0 0 0 0 0 
0 0 0 0 0 0 0 0 0 
0 0 0 0 0 0 0 0 0 
0 0 0 0 0 0 0 0 0 
0 0 0 0 0 0 0 0 0 
0 0 1 1 1 1 1 1 1 
2 2 2 2 2 3 3 3 3 
3 3 13 13 13 5 5 5 5 
5 4 4 4 6 6 6 6 6 
7 7 7 7 16 16 16 17 17 
17 0 0 0 0 0 0 0 0 
0 0 0 0 0 0 0 0 0 
0 0 0 0 0 0 0 0 0 
0 0 0 0 0 0 0 0 0 
0 0 0 0 0 0 0 0 0 
0 0 0 0 0 0 0 0 0 
0 0 9 9 1 1 1 1 1 
1 2 2 2 2 2 11 3 3 
3 3 3 13 13 13 5 5 5 
5 5 4 4 4 6 6 6 6 
6 7 7 7 7 16 16 16 17 
17 17 17 0 0 0 0 0 0 
0 0 0 0 0 0 0 0 0 
0 0 0 0 0 0 0 0 0 
0 0 0 0 0 0 0 0 0 
0 0 0 0 0 0 0 0 0 
0 0 0 0 0 0 0 0 0 
0 0 9 9 9 9 1 1 1 
1 2 2 2 2 2 11 11 11 
3 3 3 13 13 13 13 5 5 
5 5 5 4 4 4 6 6 6 
6 7 7 7 7 7 16 16 16 
17 17 17 17 17 0 0 0 0 
0 0 0 0 0 0 0 0 0 
0 0 0 0 0 0 0 0 0 
0 0 0 0 0 0 0 0 0 
0 0 0 0 0 0 0 0 0 
0 0 0 0 0 0 0 0 0 
0 0 9 9 9 9 9 9 1 
1 2 2 2 2 2 11 11 11 
11 11 3 13 13 13 13 13 13 
5 5 5 5 4 4 4 4 6 
6 7 7 7 7 7 16 16 16 
16 17 17 17 17 17 17 0 0 
0 0 0 0 0 0 0 0 0 
0 0 0 0 0 0 0 0 0 
0 0 0 0 0 0 0 0 0 
0 0 0 0 0 0 0 0 0 
0 0 0 0 0 0 0 0 0 
8 8 8 9 9 9 9 9 9 
10 10 2 2 2 2 2 11 11 
11 11 11 12 12 12 13 13 13 
13 13 5 5 4 4 4 4 4 
15 15 15 7 7 7 16 16 16 
16 16 17 17 17 17 18 18 18 
0 0 0 0 0 0 0 0 0 
0 0 0 0 0 0 0 0 0 
0 0 0 0 0 0 0 0 0 
0 0 0 0 0 0 0 0 0 
0 0 0 0 0 0 0 0 0 
8 8 8 8 9 9 9 9 9 
10 10 10 10 10 10 2 11 11 
11 11 11 12 12 12 12 12 13 
13 13 14 14 14 4 4 4 4 
15 15 15 15 15 7 16 16 16 
16 16 16 17 17 17 18 18 18 
18 18 0 0 0 0 0 0 0 
0 0 0 0 0 0 0 0 0 
0 0 0 0 0 0 0 0 0 
0 0 0 0 0 0 0 0 0 
0 0 0 0 0 0 0 0 0 
8 8 8 8 8 20 9 9 9 
10 10 10 10 10 10 10 22 11 
11 11 11 11 12 12 12 12 12 
12 14 14 14 14 14 14 4 4 
15 15 15 15 15 15 27 16 16 
16 16 29 29 29 18 18 18 18 
18 18 18 18 0 0 0 0 0 
0 0 0 0 0 0 0 0 0 
0 0 0 0 0 0 0 0 0 
0 0 0 0 0 0 0 0 0 
0 0 0 0 0 0 0 0 0 
19 8 8 8 8 8 20 20 9 
10 10 10 10 10 10 10 22 22 
22 11 11 11 11 12 12 12 12 
12 25 14 14 14 14 14 14 14 
15 15 15 15 15 15 27 27 27 
16 16 29 29 29 29 29 18 18 
18 18 18 18 18 31 0 0 0 
0 0 0 0 0 0 0 0 0 
0 0 0 0 0 0 0 0 0 
0 0 0 0 0 0 0 0 0 
0 0 0 0 0 0 0 0 0 
19 19 19 8 8 8 8 20 20 
21 21 21 21 10 10 10 22 22 
22 22 22 11 11 11 12 12 12 
12 25 25 14 14 14 14 14 14 
26 26 15 15 15 15 27 27 27 
27 27 29 29 29 29 29 29 18 
18 18 18 18 18 31 31 31 0 
0 0 0 0 0 0 0 0 0 
0 0 0 0 0 0 0 0 0 
0 0 0 0 0 0 0 0 0 
0 0 0 0 0 0 0 0 0 
19 19 19 19 19 8 8 20 20 
20 21 21 21 21 21 10 10 22 
22 22 22 22 22 24 24 24 25 
25 25 25 25 25 14 14 14 14 
26 26 26 26 15 15 27 27 27 
27 27 27 29 29 29 29 29 29 
30 30 30 30 18 18 31 31 31 
31 0 0 0 0 0 0 0 0 
0 0 0 0 0 0 0 0 0 
0 0 0 0 0 0 0 0 0 
0 0 0 0 0 0 0 0 0 
19 19 19 19 19 19 8 20 20 
20 20 21 21 21 21 21 21 22 
22 22 22 22 22 36 24 24 24 
24 25 25 25 25 25 25 14 14 
26 26 26 26 26 26 27 27 27 
27 27 27 28 28 29 29 29 29 
28 30 30 30 30 30 18 31 31 
31 31 31 0 0 0 0 0 0 
0 0 0 0 0 0 0 0 0 
0 0 0 0 0 0 0 0 0 
0 0 0 0 0 0 0 0 0 
19 19 19 19 19 19 19 20 20 
20 20 20 21 21 21 21 21 35 
35 22 22 22 22 36 36 24 24 
24 24 24 25 25 25 25 25 25 
26 26 26 26 26 26 26 27 27 
27 27 27 28 28 28 28 28 28 
28 28 30 30 30 30 30 30 31 
31 31 31 31 31 0 0 0 0 
0 0 0 0 0 0 0 0 0 
0 0 0 0 0 0 0 0 0 
0 0 0 0 0 0 0 0 0 
32 32 19 19 19 32 32 32 20 
20 20 20 20 20 21 21 21 35 
35 35 35 22 22 36 36 36 24 
24 24 24 24 25 25 25 25 25 
38 38 26 26 26 26 26 54 54 
54 40 40 40 28 28 28 28 28 
28 28 28 28 30 30 30 30 30 
44 31 31 31 31 31 31 0 0 
0 0 0 0 0 0 0 0 0 
0 0 0 0 0 0 0 0 0 
0 0 0 0 0 0 0 0 0 
0 32 32 32 32 32 32 32 32 
20 20 20 20 20 20 20 21 35 
35 35 35 35 35 36 36 36 36 
24 24 24 24 24 37 38 38 38 
38 38 38 38 26 26 26 54 54 
54 54 40 40 40 40 28 28 28 
28 28 28 28 28 30 30 30 30 
44 44 44 44 44 44 44 44 0 
0 0 0 0 0 0 0 0 0 
0 0 0 0 0 0 0 0 0 
0 0 0 0 0 0 0 0 0 
0 0 32 32 32 32 32 32 32 
32 33 33 33 33 20 20 34 34 
35 35 35 35 35 35 36 36 36 
36 24 24 24 37 37 37 38 38 
38 38 38 38 38 39 39 54 54 
54 54 54 40 40 40 40 40 42 
42 42 42 42 28 28 43 43 43 
43 44 44 44 44 44 44 44 44 
0 0 0 0 0 0 0 0 0 
0 0 0 0 0 0 0 0 0 
0 0 0 0 0 0 0 0 0 
0 0 0 32 32 32 32 32 32 
46 46 33 33 33 33 33 34 34 
34 34 35 35 35 35 35 36 36 
36 36 24 24 37 37 37 37 38 
38 38 38 38 39 39 39 39 39 
54 54 54 54 40 40 40 40 40 
42 42 42 42 42 42 43 43 43 
43 43 43 44 44 44 44 44 44 
44 0 0 0 0 0 0 0 0 
0 0 0 0 0 0 0 0 0 
0 0 0 0 0 0 0 0 0 
0 0 0 0 46 46 46 46 46 
46 46 46 33 33 33 33 33 34 
34 34 34 34 35 35 35 23 23 
36 36 36 37 37 37 37 37 37 
38 38 38 38 39 39 39 39 39 
39 54 54 54 54 40 40 40 40 
41 41 42 42 42 42 42 43 43 
43 43 43 43 44 44 44 44 44 
44 59 59 0 0 0 0 0 0 
0 0 0 0 0 0 0 0 0 
0 0 0 0 0 0 0 0 0 
0 0 0 0 45 45 46 46 46 
46 46 46 46 33 33 33 33 48 
48 34 34 34 34 34 35 23 23 
23 23 23 23 23 37 37 37 37 
37 38 38 38 38 39 39 39 39 
39 39 54 54 54 54 40 40 41 
41 41 41 41 42 42 42 42 43 
43 43 43 43 43 44 44 44 44 
44 59 59 59 59 0 0 0 0 
0 0 0 0 0 0 0 0 0 
0 0 0 0 0 0 0 0 0 
0 0 0 0 45 45 45 45 46 
46 46 46 46 46 33 33 33 48 
48 48 34 34 34 34 34 49 23 
23 23 23 23 23 23 23 37 37 
37 51 51 51 51 39 39 39 39 
39 39 39 54 54 54 54 54 41 
41 41 41 41 41 41 42 42 72 
72 43 43 43 43 43 57 57 57 
57 57 59 59 59 59 59 0 0 
0 0 0 0 0 0 0 0 0 
0 0 0 0 0 0 0 0 0 
0 0 0 0 0 45 45 45 45 
45 46 46 46 46 46 33 33 48 
48 48 48 34 34 34 34 49 49 
49 23 23 23 23 23 23 23 23 
23 51 51 51 51 51 52 52 52 
52 52 52 53 53 53 54 54 55 
55 41 41 41 41 41 41 56 56 
72 72 72 72 72 72 57 57 57 
57 57 57 59 59 59 59 59 0 
0 0 0 0 0 0 0 0 0 
0 0 0 0 0 0 0 0 0 