# vtk DataFile Version 5.1
vtk output
ASCII
DATASET STRUCTURED_POINTS
DIMENSIONS 100 100 1
SPACING 1 1 1
ORIGIN 0 0 0
POINT_DATA 10000
FIELD FieldData 3
CellType 1 10000 char
0 0 0 0 0 0 0 0 0 
0 0 0 0 0 0 0 0 0 
0 0 0 0 0 0 0 0 0 
0 0 0 0 0 0 0 0 0 
0 0 0 0 0 0 0 0 0 
0 0 0 0 0 0 0 0 0 
0 0 0 0 0 0 0 0 0 
0 0 0 0 0 0 0 0 0 
0 0 0 0 0 0 0 0 0 
0 0 0 0 0 0 0 0 0 
0 0 0 0 0 0 0 0 0 
0 0 0 0 0 0 0 0 0 
0 0 0 0 0 0 0 0 0 
0 0 0 0 0 0 0 0 0 
0 0 0 0 0 0 0 0 0 
0 0 0 0 0 0 0 0 0 
0 0 0 0 0 0 0 0 0 
0 0 0 0 0 0 0 0 0 
0 0 0 0 0 0 0 0 0 
0 0 0 0 0 0 0 0 0 
0 0 0 0 0 0 0 0 0 
0 0 0 0 0 0 0 0 0 
0 0 0 0 0 0 0 0 0 
0 0 0 0 0 0 0 0 0 
0 0 0 0 0 0 0 0 0 
0 0 0 0 0 0 0 0 0 
0 0 0 0 0 0 0 0 0 
0 0 0 0 0 0 0 0 0 
0 0 0 0 0 0 0 0 0 
0 0 0 0 0 0 0 0 0 
0 0 0 0 0 0 0 0 0 
0 0 0 0 0 0 0 0 0 
0 0 0 0 0 0 0 0 0 
0 0 0 0 0 0 0 0 0 
0 0 0 0 0 0 0 0 0 
0 0 0 0 0 0 0 0 0 
0 0 0 0 0 0 0 0 0 
0 0 0 0 0 0 0 0 0 
0 0 0 0 0 0 0 0 0 
0 0 0 0 0 0 0 0 0 
0 0 0 0 0 0 0 0 0 
0 0 0 0 0 0 0 0 0 
0 0 0 0 0 0 0 0 0 
0 0 0 0 0 0 0 0 0 
0 0 0 0 0 0 0 0 0 
0 0 0 0 0 0 0 0 0 
0 0 0 0 0 0 0 0 0 
0 0 0 0 0 0 0 0 0 
0 0 0 0 0 0 0 0 0 
0 0 0 0 0 0 0 0 0 
0 0 0 0 0 0 0 0 0 
0 0 0 0 0 0 0 0 0 
0 0 0 0 0 0 0 0 0 
0 0 0 0 0 0 0 0 0 
0 0 0 0 0 0 0 0 0 
0 0 0 0 0 0 0 0 0 
0 0 0 0 0 0 0 0 0 
0 0 0 0 0 0 0 0 0 
0 0 0 0 0 0 0 0 0 
0 0 0 0 0 0 0 0 0 
0 0 0 0 0 0 0 0 0 
0 0 0 0 0 0 0 0 0 
0 0 0 0 0 0 0 0 0 
0 0 0 0 0 0 0 0 0 
0 0 0 0 0 0 0 0 0 
0 0 0 0 0 0 0 0 0 
0 0 0 0 0 0 0 0 0 
0 0 0 0 0 0 0 0 0 
0 0 0 0 0 0 0 0 0 
0 0 0 0 0 0 0 0 0 
0 0 0 0 0 0 0 0 0 
0 0 0 0 0 0 0 0 0 
0 0 0 0 0 0 0 0 0 
0 0 0 0 0 0 0 0 0 
0 0 0 0 0 0 0 0 0 
0 0 0 0 0 0 0 0 0 
0 0 0 0 0 0 0 0 0 
0 0 0 0 0 0 0 0 0 
0 0 0 0 0 0 0 0 0 
0 0 0 0 0 0 0 0 0 
0 0 0 0 0 0 0 0 0 
0 0 0 0 0 0 0 0 0 
0 0 0 0 0 0 0 0 0 
0 0 0 0 0 0 0 0 0 
0 0 0 0 0 0 0 0 0 
0 0 0 0 0 0 0 0 0 
0 0 0 0 0 0 0 0 0 
0 0 0 0 0 0 0 0 0 
0 0 0 0 0 0 0 0 0 
0 0 0 0 0 0 0 0 0 
0 0 0 0 0 0 0 0 0 
0 0 0 0 0 0 0 0 0 
0 0 0 0 0 0 0 0 0 
0 0 0 0 0 0 0 0 0 
0 0 0 0 0 0 0 0 0 
0 0 0 0 0 0 0 0 0 
0 0 0 0 0 0 0 0 0 
0 0 0 0 0 0 0 0 0 
0 0 0 0 0 0 0 0 0 
0 0 0 0 0 0 0 0 0 
0 0 0 0 0 0 0 0 0 
0 0 0 0 0 0 0 0 0 
0 0 0 0 0 0 0 0 0 
0 0 0 0 0 0 0 0 0 
0 0 0 0 0 0 0 0 0 
0 0 0 0 0 0 0 0 0 
0 0 0 0 0 0 0 0 0 
0 0 0 0 0 0 0 0 0 
0 0 0 0 0 0 0 0 0 
0 0 0 0 0 0 0 0 0 
0 0 0 0 0 0 0 0 0 
0 0 0 0 0 0 0 0 0 
0 0 0 0 0 0 0 0 0 
0 0 0 0 0 0 0 0 0 
0 0 0 0 0 0 0 0 0 
0 0 0 0 0 0 0 0 0 
0 0 0 0 0 0 0 0 0 
0 0 0 0 0 0 0 0 0 
0 0 0 0 0 0 0 0 0 
0 0 0 0 0 0 0 0 0 
0 0 0 0 0 0 0 0 0 
0 0 0 0 0 0 0 0 0 
0 0 0 0 0 0 0 0 0 
0 0 0 0 0 0 0 0 0 
0 0 0 0 0 0 0 0 0 
0 0 0 0 0 0 0 0 0 
0 0 0 0 0 0 0 0 0 
0 0 0 0 0 0 0 0 0 
0 0 0 0 0 0 0 0 0 
0 0 0 0 0 0 0 0 0 
0 0 0 0 0 0 0 0 0 
0 0 0 0 0 0 0 0 0 
0 0 0 0 0 0 0 0 0 
0 0 0 0 0 0 0 0 0 
0 0 0 0 0 0 0 0 0 
0 0 0 0 0 0 0 0 0 
0 0 0 0 0 0 0 0 0 
0 0 0 0 0 0 0 0 0 
0 0 0 0 0 0 0 0 0 
0 0 0 0 0 0 0 0 0 
0 0 0 0 0 0 0 0 0 
0 0 0 0 0 0 0 0 0 
0 0 0 0 0 0 0 0 0 
0 0 0 0 0 0 0 0 0 
0 0 0 0 0 0 0 0 0 
0 0 0 0 0 0 0 0 0 
0 0 0 0 0 0 0 0 0 
0 0 0 0 0 0 0 0 0 
0 0 0 0 0 0 0 0 0 
0 0 0 0 0 0 0 0 0 
0 0 0 0 0 0 0 0 0 
0 0 0 0 0 0 0 0 0 
0 0 0 0 0 0 0 0 0 
0 0 0 0 0 0 0 0 0 
0 0 0 0 0 0 0 0 0 
0 0 0 0 0 0 0 0 0 
0 0 0 0 0 0 0 0 0 
0 0 0 0 0 0 0 0 0 
0 0 0 0 0 0 0 0 0 
0 0 0 0 0 0 0 0 0 
0 0 0 0 0 0 0 0 0 
0 0 0 0 0 0 0 0 0 
0 0 0 0 0 0 0 0 0 
0 0 0 0 0 0 0 0 0 
0 0 0 0 0 0 0 0 0 
0 0 0 0 0 0 0 0 0 
0 0 0 0 0 0 0 0 0 
0 0 0 0 0 0 0 0 0 
0 0 0 0 0 0 0 0 0 
0 0 0 0 0 0 0 0 0 
0 1 1 1 1 1 1 2 2 
1 1 1 1 1 1 1 1 2 
2 1 1 1 1 1 1 1 2 
2 2 2 2 2 2 1 1 1 
1 1 1 1 1 2 2 2 0 
0 0 0 0 0 0 0 0 0 
0 0 0 0 0 0 0 0 0 
0 0 0 0 0 0 0 0 0 
0 0 0 0 0 0 0 0 0 
0 0 0 0 0 0 0 0 0 
0 0 0 0 0 0 0 0 0 
0 1 1 1 1 1 1 1 2 
2 1 1 1 1 1 1 1 2 
2 2 1 1 1 1 1 1 1 
2 2 2 2 2 2 2 1 1 
1 1 1 1 1 2 2 2 2 
2 0 0 0 0 0 0 0 0 
0 0 0 0 0 0 0 0 0 
0 0 0 0 0 0 0 0 0 
0 0 0 0 0 0 0 0 0 
0 0 0 0 0 0 0 0 0 
0 0 0 0 0 0 0 0 0 
0 2 2 1 1 1 1 1 1 
2 2 2 1 1 1 1 1 2 
2 2 2 1 1 1 1 1 1 
1 2 2 2 2 2 2 2 1 
1 1 1 1 1 1 2 2 2 
2 2 2 0 0 0 0 0 0 
0 0 0 0 0 0 0 0 0 
0 0 0 0 0 0 0 0 0 
0 0 0 0 0 0 0 0 0 
0 0 0 0 0 0 0 0 0 
0 0 0 0 0 0 0 0 0 
0 2 2 2 1 1 1 1 1 
1 2 2 2 2 1 1 1 1 
2 2 2 2 1 1 1 1 1 
1 1 2 2 2 2 2 2 2 
2 1 1 1 1 1 1 2 2 
2 2 2 2 2 0 0 0 0 
0 0 0 0 0 0 0 0 0 
0 0 0 0 0 0 0 0 0 
0 0 0 0 0 0 0 0 0 
0 0 0 0 0 0 0 0 0 
0 0 0 0 0 0 0 0 0 
0 2 2 2 2 1 1 1 2 
2 2 2 2 2 2 2 2 2 
2 2 2 2 2 2 2 2 2 
2 2 2 2 1 1 1 1 1 
1 2 2 2 2 2 2 2 2 
2 2 2 2 2 2 2 0 0 
0 0 0 0 0 0 0 0 0 
0 0 0 0 0 0 0 0 0 
0 0 0 0 0 0 0 0 0 
0 0 0 0 0 0 0 0 0 
0 0 0 0 0 0 0 0 0 
0 2 2 2 2 2 2 2 2 
2 2 2 2 2 2 2 2 2 
2 2 2 2 2 2 2 2 2 
2 2 2 2 2 1 1 1 1 
1 1 1 2 2 2 2 2 2 
1 1 1 1 2 2 2 2 2 
0 0 0 0 0 0 0 0 0 
0 0 0 0 0 0 0 0 0 
0 0 0 0 0 0 0 0 0 
0 0 0 0 0 0 0 0 0 
0 0 0 0 0 0 0 0 0 
0 2 2 2 2 2 2 2 2 
2 2 2 2 1 1 1 1 1 
1 2 2 2 1 1 1 2 2 
2 2 2 2 2 2 1 1 1 
1 1 1 1 2 2 2 2 2 
2 1 1 1 1 2 2 2 2 
2 2 0 0 0 0 0 0 0 
0 0 0 0 0 0 0 0 0 
0 0 0 0 0 0 0 0 0 
0 0 0 0 0 0 0 0 0 
0 0 0 0 0 0 0 0 0 
0 2 2 2 2 2 2 2 2 
2 2 2 2 2 1 1 1 1 
1 1 2 1 1 1 1 1 2 
1 1 1 1 2 2 2 1 1 
1 1 1 1 1 2 2 2 2 
1 1 1 1 1 1 2 2 2 
2 2 2 2 0 0 0 0 0 
0 0 0 0 0 0 0 0 0 
0 0 0 0 0 0 0 0 0 
0 0 0 0 0 0 0 0 0 
0 0 0 0 0 0 0 0 0 
0 2 2 2 2 1 1 1 1 
1 2 2 2 2 1 1 1 1 
1 1 1 2 2 1 1 1 1 
2 1 1 1 1 1 1 2 2 
2 2 2 2 2 2 2 2 2 
2 1 1 1 1 1 1 2 2 
2 2 2 2 2 1 0 0 0 
0 0 0 0 0 0 0 0 0 
0 0 0 0 0 0 0 0 0 
0 0 0 0 0 0 0 0 0 
0 0 0 0 0 0 0 0 0 
0 2 2 2 2 2 1 1 1 
1 1 2 2 2 2 1 1 1 
1 1 1 1 2 2 1 1 1 
1 2 1 1 1 1 1 1 2 
2 2 2 1 1 1 2 2 2 
2 2 1 1 1 2 2 2 2 
2 2 1 1 1 1 1 1 0 
0 0 0 0 0 0 0 0 0 
0 0 0 0 0 0 0 0 0 
0 0 0 0 0 0 0 0 0 
0 0 0 0 0 0 0 0 0 
0 2 2 2 2 2 2 1 1 
1 1 1 1 1 1 2 2 2 
2 2 2 2 2 2 2 1 1 
1 1 2 2 1 1 1 1 1 
2 2 2 1 1 1 1 2 2 
2 2 2 1 1 1 2 2 2 
2 2 2 1 1 1 1 1 1 
1 0 0 0 0 0 0 0 0 
0 0 0 0 0 0 0 0 0 
0 0 0 0 0 0 0 0 0 
0 0 0 0 0 0 0 0 0 
0 2 2 2 2 2 2 2 2 
2 2 1 1 1 1 1 2 2 
2 2 2 2 2 2 2 2 1 
1 1 1 2 2 1 1 1 1 
1 2 2 2 1 1 1 1 2 
2 2 2 2 1 1 1 2 2 
2 2 2 2 1 1 1 1 1 
2 2 2 0 0 0 0 0 0 
0 0 0 0 0 0 0 0 0 
0 0 0 0 0 0 0 0 0 
0 0 0 0 0 0 0 0 0 
0 2 2 2 2 1 1 1 2 
2 2 2 1 1 1 2 2 2 
2 2 2 2 2 2 1 2 2 
2 1 1 1 2 2 2 2 2 
2 2 2 2 2 1 1 1 1 
2 2 2 2 2 2 2 2 2 
2 2 2 2 2 1 1 1 1 
2 2 2 2 2 0 0 0 0 
0 0 0 0 0 0 0 0 0 
0 0 0 0 0 0 0 0 0 
0 0 0 0 0 0 0 0 0 
0 2 2 2 2 2 1 1 1 
1 2 2 2 2 2 2 2 2 
2 2 2 2 2 2 2 1 2 
2 2 2 2 2 2 2 2 1 
1 2 2 2 2 2 1 1 1 
1 2 1 1 1 1 2 2 2 
1 1 1 1 2 2 1 1 1 
1 2 2 2 2 2 1 0 0 
0 0 0 0 0 0 0 0 0 
0 0 0 0 0 0 0 0 0 
0 0 0 0 0 0 0 0 0 
0 2 2 2 2 2 2 1 1 
1 1 2 2 2 2 2 2 2 
2 2 2 1 1 1 1 1 1 
2 2 2 2 2 2 2 2 2 
1 1 1 1 1 1 2 1 1 
1 1 2 1 1 1 1 2 2 
2 1 1 1 1 1 2 2 2 
2 2 2 2 2 2 2 1 1 
0 0 0 0 0 0 0 0 0 
0 0 0 0 0 0 0 0 0 
0 0 0 0 0 0 0 0 0 
0 2 2 2 2 2 2 2 1 
1 1 1 2 2 2 2 2 2 
2 2 2 2 1 1 1 1 1 
1 2 2 2 2 2 2 2 2 
2 1 1 1 1 1 1 2 2 
2 2 2 2 1 1 1 1 2 
2 2 1 1 1 1 1 2 2 
2 2 1 1 1 2 2 2 1 
1 1 0 0 0 0 0 0 0 
0 0 0 0 0 0 0 0 0 
0 0 0 0 0 0 0 0 0 
0 2 2 2 2 2 2 2 1 
1 1 1 1 2 2 2 2 1 
1 2 2 2 2 1 1 1 1 
1 1 2 1 1 1 1 2 2 
2 1 1 1 1 1 1 1 2 
2 2 2 2 2 1 1 1 1 
2 2 2 1 1 1 1 2 2 
2 2 2 1 1 1 1 1 2 
1 1 1 1 0 0 0 0 0 
0 0 0 0 0 0 0 0 0 
0 0 0 0 0 0 0 0 0 
0 0 2 2 2 2 2 2 2 
2 2 1 1 1 2 2 2 2 
1 1 1 2 2 2 1 1 1 
1 1 2 2 1 1 1 1 1 
1 2 1 1 1 1 1 1 1 
2 2 2 2 2 2 1 1 1 
1 2 2 2 1 1 1 2 2 
2 2 2 2 1 1 1 1 1 
2 1 1 1 1 0 0 0 0 
0 0 0 0 0 0 0 0 0 
0 0 0 0 0 0 0 0 0 
0 0 0 2 2 2 2 2 2 
2 2 2 1 1 1 2 2 2 
2 1 1 1 1 1 2 2 2 
2 2 2 2 2 1 1 1 1 
1 1 2 2 2 2 2 2 2 
2 2 2 2 2 2 2 1 1 
1 1 2 2 2 1 1 2 2 
2 2 2 2 2 1 1 1 1 
1 2 1 1 1 1 0 0 0 
0 0 0 0 0 0 0 0 0 
0 0 0 0 0 0 0 0 0 
0 0 0 0 2 2 2 2 2 
2 2 2 2 2 2 2 2 2 
2 2 1 1 1 1 1 2 2 
2 2 2 2 2 2 1 1 1 
1 1 1 2 2 2 2 2 2 
2 1 1 1 1 1 1 2 1 
1 2 2 2 2 2 1 1 2 
2 1 1 1 1 2 1 1 1 
1 1 2 1 1 1 1 0 0 
0 0 0 0 0 0 0 0 0 
0 0 0 0 0 0 0 0 0 
0 0 0 0 0 2 2 2 2 
2 2 2 2 2 2 2 2 2 
2 2 2 1 1 1 1 1 2 
2 2 2 2 2 2 2 1 1 
1 1 2 2 2 2 2 2 2 
2 2 1 1 1 1 1 1 2 
2 2 1 1 1 1 2 2 2 
2 1 1 1 1 1 2 1 1 
1 1 2 2 1 1 1 1 0 
0 0 0 0 0 0 0 0 0 
0 0 0 0 0 0 0 0 0 
0 0 0 0 0 0 1 1 1 
1 1 1 2 2 2 2 2 2 
2 2 2 2 1 1 1 1 2 
2 1 1 1 1 1 1 2 2 
2 2 2 2 2 1 1 1 1 
2 2 2 1 1 1 1 1 1 
2 2 2 1 1 1 1 2 2 
2 2 1 1 1 1 1 2 2 
2 2 2 2 2 2 2 2 2 
0 0 0 0 0 0 0 0 0 
0 0 0 0 0 0 0 0 0 
0 0 0 0 0 0 0 1 1 
1 1 1 1 1 2 2 2 1 
1 2 2 2 2 1 1 1 1 
2 2 1 1 1 1 1 1 2 
2 2 2 2 2 2 1 1 1 
1 1 1 2 1 1 1 1 1 
2 2 2 2 1 1 1 1 2 
2 2 2 1 1 1 1 1 2 
2 2 2 2 2 2 2 2 2 
2 0 0 0 0 0 0 0 0 
0 0 0 0 0 0 0 0 0 
0 0 0 0 0 0 0 0 1 
1 1 1 1 1 1 2 2 2 
1 1 1 2 2 2 2 2 1 
2 2 2 2 1 1 1 1 1 
2 2 2 2 2 2 2 1 1 
1 1 1 1 2 2 2 2 2 
2 2 2 2 2 1 1 1 1 
2 2 2 2 1 1 1 1 1 
2 1 1 1 1 1 2 1 1 
1 1 0 0 0 0 0 0 0 
0 0 0 0 0 0 0 0 0 
0 0 0 0 0 0 0 0 0 
2 1 1 1 2 2 2 2 2 
2 1 1 1 1 1 2 2 2 
2 2 2 2 2 1 1 1 1 
1 2 2 2 2 2 2 2 1 
1 1 1 1 1 2 2 2 2 
1 1 1 1 1 2 1 1 1 
1 2 1 1 1 1 2 2 2 
2 1 1 1 1 1 1 2 1 
1 1 1 0 0 0 0 0 0 
0 0 0 0 0 0 0 0 0 
0 0 0 0 0 0 0 0 0 
0 2 1 1 1 2 2 2 2 
2 2 1 1 1 1 2 2 2 
2 2 2 2 2 2 1 1 2 
2 2 2 1 1 1 1 1 2 
2 2 2 2 1 1 2 2 2 
2 1 1 1 1 1 2 2 1 
1 1 2 1 1 1 1 1 2 
2 2 1 1 1 1 1 2 2 
1 1 1 1 0 0 0 0 0 
0 0 0 0 0 0 0 0 0 
0 0 0 0 0 0 0 0 0 
0 0 2 2 1 1 2 2 2 
2 2 2 1 1 1 1 2 2 
2 2 2 2 2 2 2 1 1 
2 2 2 2 1 1 1 1 1 
2 2 2 2 2 2 2 2 2 
2 2 1 1 1 1 1 2 2 
2 2 1 2 1 1 1 1 1 
2 2 2 1 1 1 1 2 2 
2 1 1 1 1 0 0 0 0 
0 0 0 0 0 0 0 0 0 
0 0 0 0 0 0 0 0 0 
0 0 0 2 2 2 2 2 2 
2 2 2 2 1 1 1 1 2 
2 2 2 2 2 2 2 2 2 
2 2 2 2 1 1 1 1 1 
1 2 2 2 1 1 1 1 1 
2 2 2 1 1 1 1 1 2 
2 2 2 1 2 1 1 1 1 
1 2 2 2 1 1 1 2 2 
2 2 1 1 1 1 0 0 0 
0 0 0 0 0 0 0 0 0 
0 0 0 0 0 0 0 0 0 
0 0 0 0 2 2 2 2 2 
2 2 2 2 2 1 1 1 1 
2 2 2 2 2 1 1 1 1 
2 2 2 2 2 1 1 1 1 
1 1 2 2 2 1 1 1 1 
1 2 2 2 1 1 1 1 1 
2 1 1 1 1 2 1 1 1 
1 2 2 2 2 2 2 2 2 
2 2 2 1 1 1 1 0 0 
0 0 0 0 0 0 0 0 0 
0 0 0 0 0 0 0 0 0 
0 0 0 0 0 2 2 2 2 
1 1 1 1 1 2 2 2 2 
2 2 1 1 1 1 1 1 1 
1 2 2 2 2 2 1 1 1 
1 1 1 2 2 2 1 1 1 
1 1 2 2 2 2 2 2 2 
2 2 1 1 1 1 2 2 2 
2 2 2 2 2 2 1 1 2 
2 2 2 2 1 1 1 1 0 
0 0 0 0 0 0 0 0 0 
0 0 0 0 0 0 0 0 0 
0 0 0 0 0 0 2 2 2 
2 1 1 1 1 1 2 2 2 
2 2 2 1 1 1 1 1 1 
1 1 2 2 2 2 2 2 2 
2 2 2 2 2 2 2 1 1 
1 1 1 1 1 1 1 1 1 
2 2 2 1 1 1 1 2 1 
1 1 1 1 1 2 2 1 1 
1 1 1 1 2 2 2 2 2 
0 0 0 0 0 0 0 0 0 
0 0 0 0 0 0 0 0 0 
0 0 0 0 0 0 0 2 2 
2 2 1 1 1 1 1 2 2 
2 2 2 2 1 1 1 1 1 
1 1 2 2 2 1 1 1 1 
2 2 2 2 1 1 1 2 1 
1 1 2 2 2 1 1 1 1 
1 2 2 2 1 1 1 1 2 
1 1 1 1 1 1 2 2 1 
1 1 1 1 1 2 2 1 1 
1 0 0 0 0 0 0 0 0 
0 0 0 0 0 0 0 0 0 
0 0 0 0 0 0 0 0 2 
2 2 2 1 1 1 1 1 2 
2 2 2 2 2 2 2 2 2 
1 1 2 2 2 2 1 1 1 
1 2 2 2 2 1 1 1 2 
2 2 2 2 2 2 1 1 1 
1 1 2 2 2 1 1 1 1 
2 1 1 1 1 1 1 1 1 
1 1 1 1 1 1 2 2 1 
1 1 0 0 0 0 0 0 0 
0 0 0 0 0 0 0 0 0 
0 0 0 0 0 0 0 0 0 
2 2 2 2 1 1 1 1 1 
2 2 2 1 1 1 2 2 2 
2 2 2 2 2 2 2 1 1 
1 1 2 2 2 2 1 1 1 
2 2 2 2 2 2 2 1 1 
1 1 1 2 2 2 1 1 1 
1 2 1 1 1 1 1 1 2 
2 2 2 2 2 2 2 2 2 
1 1 1 0 0 0 0 0 0 
0 0 0 0 0 0 0 0 0 
0 0 0 0 0 0 0 0 0 
0 2 2 2 2 1 1 2 2 
2 2 1 1 1 1 1 2 2 
2 2 2 2 2 2 2 2 1 
1 1 1 2 2 2 2 1 1 
1 2 2 2 2 2 2 2 2 
2 2 2 2 2 2 2 2 2 
2 2 2 2 2 2 2 2 1 
2 2 2 2 2 2 2 2 1 
1 1 1 1 0 0 0 0 0 
0 0 0 0 0 0 0 0 0 
0 0 0 0 0 0 0 0 0 
0 0 2 2 2 2 1 2 2 
2 2 2 1 1 1 1 1 1 
2 2 2 2 2 2 2 2 2 
1 1 1 1 2 2 2 2 1 
1 1 2 2 1 1 1 1 1 
1 1 2 2 1 1 1 1 1 
2 2 2 2 2 1 1 1 1 
1 2 1 1 1 1 1 1 2 
1 1 1 1 1 0 0 0 0 
0 0 0 0 0 0 0 0 0 
0 0 0 0 0 0 0 0 0 
0 0 0 2 2 2 2 2 2 
2 2 2 2 1 1 1 1 1 
1 2 2 2 2 2 2 2 2 
2 1 1 1 1 2 2 1 1 
1 1 1 1 1 1 1 1 1 
1 1 1 1 2 1 1 1 1 
1 2 2 2 2 2 1 1 1 
1 1 2 1 1 1 1 1 2 
2 2 2 1 1 1 0 0 0 
0 0 0 0 0 0 0 0 0 
0 0 0 0 0 0 0 0 0 
0 0 0 0 2 2 2 2 2 
2 2 2 2 2 1 1 1 1 
1 1 2 2 2 1 1 1 1 
2 2 1 1 1 1 2 2 1 
1 1 1 1 2 2 1 1 1 
1 1 1 1 1 2 1 1 1 
1 1 2 2 2 2 2 1 1 
1 1 1 2 1 1 1 1 1 
2 2 2 2 2 2 2 0 0 
0 0 0 0 0 0 0 0 0 
0 0 0 0 0 0 0 0 0 
0 0 0 0 0 2 2 2 2 
2 2 2 2 2 2 1 1 2 
2 2 2 2 1 1 1 1 1 
1 1 2 2 2 2 2 2 2 
2 2 2 2 2 2 2 2 2 
2 2 2 2 2 2 2 1 1 
1 1 1 2 2 2 2 2 1 
1 1 1 1 2 1 1 1 1 
1 2 2 2 2 2 2 2 0 
0 0 0 0 0 0 0 0 0 
0 0 0 0 0 0 0 0 0 
0 0 0 0 0 0 2 2 2 
2 2 2 2 2 2 2 2 2 
2 2 2 2 2 1 1 1 1 
1 1 1 2 2 2 2 2 1 
1 1 1 1 1 2 2 2 2 
2 2 1 1 1 1 1 2 2 
1 1 1 1 2 1 1 1 1 
2 2 2 2 2 2 1 1 1 
1 1 2 2 2 2 2 2 2 
0 0 0 0 0 0 0 0 0 
0 0 0 0 0 0 0 0 0 
0 0 0 0 0 0 0 2 2 
2 2 2 2 2 2 2 2 2 
2 2 2 2 2 2 1 1 1 
1 1 1 1 2 2 2 2 2 
1 1 1 1 1 1 2 2 2 
2 2 2 1 1 1 1 1 2 
2 2 2 2 2 2 1 1 1 
1 2 2 2 2 2 2 2 2 
2 2 2 2 1 1 1 1 1 
1 0 0 0 0 0 0 0 0 
0 0 0 0 0 0 0 0 0 
0 0 0 0 0 0 0 0 2 
2 2 2 2 2 2 2 2 2 
2 2 2 2 2 2 2 2 2 
1 1 2 2 2 2 2 2 2 
2 1 1 1 1 1 1 2 2 
2 2 2 2 1 1 1 1 1 
2 2 2 2 2 2 2 1 1 
1 1 2 2 1 1 1 1 1 
2 2 2 2 2 1 1 1 1 
1 1 0 0 0 0 0 0 0 
0 0 0 0 0 0 0 0 0 
0 0 0 0 0 0 0 0 0 
2 2 2 2 2 2 2 2 2 
2 2 1 1 2 2 2 2 2 
2 2 2 2 2 1 1 1 1 
1 2 1 1 1 2 2 2 1 
1 1 1 1 2 1 1 1 1 
1 2 2 2 2 2 2 2 1 
1 1 1 2 2 1 1 1 1 
1 2 2 2 2 2 2 1 1 
1 1 1 0 0 0 0 0 0 
0 0 0 0 0 0 0 0 0 
0 0 0 0 0 0 0 0 0 
0 2 2 2 2 2 2 2 2 
2 1 1 1 1 1 1 1 1 
2 2 2 2 2 2 1 1 1 
1 1 2 2 2 2 2 2 2 
1 1 1 1 1 2 2 2 1 
1 1 1 1 1 1 1 1 2 
1 1 1 1 2 2 1 1 1 
1 1 2 2 2 2 2 2 1 
1 1 1 1 0 0 0 0 0 
0 0 0 0 0 0 0 0 0 
0 0 0 0 0 0 0 0 0 
0 0 2 2 2 2 2 2 2 
2 2 2 1 1 1 1 1 1 
1 2 2 2 2 2 1 1 1 
1 1 1 2 2 2 2 2 2 
2 1 1 1 1 1 2 2 2 
2 2 2 2 2 1 1 1 1 
1 2 1 1 1 2 2 1 1 
1 1 1 2 2 2 2 2 2 
1 1 1 1 1 0 0 0 0 
0 0 0 0 0 0 0 0 0 
0 0 0 0 0 0 0 0 0 
0 0 0 1 1 1 1 2 2 
2 2 2 2 1 1 1 1 1 
1 1 2 2 2 2 2 1 1 
1 1 1 1 2 2 2 2 2 
2 2 1 1 1 1 1 2 2 
2 2 2 2 2 2 1 1 1 
1 1 2 2 2 2 2 2 1 
1 1 1 1 2 1 1 1 1 
1 2 2 2 2 2 0 0 0 
0 0 0 0 0 0 0 0 0 
0 0 0 0 0 0 0 0 0 
0 0 0 0 1 1 1 1 2 
2 2 2 2 2 1 1 1 1 
1 1 1 2 2 2 2 2 1 
1 1 1 2 2 2 1 1 1 
1 1 2 1 1 1 1 1 2 
2 1 1 1 1 1 2 1 1 
1 1 1 2 2 2 1 1 1 
2 2 2 2 2 2 1 1 1 
1 1 2 2 1 1 1 0 0 
0 0 0 0 0 0 0 0 0 
0 0 0 0 0 0 0 0 0 
0 0 0 0 0 1 1 1 1 
2 2 2 2 2 2 2 2 2 
2 2 2 2 1 1 1 1 2 
2 2 2 2 2 2 2 1 1 
1 1 1 2 2 2 2 2 1 
2 2 1 1 1 1 1 1 1 
1 1 1 1 2 2 1 1 1 
1 1 2 2 2 2 2 1 1 
1 1 1 2 2 1 1 1 0 
0 0 0 0 0 0 0 0 0 
0 0 0 0 0 0 0 0 0 
0 0 0 0 0 0 1 1 1 
1 2 1 1 1 1 1 2 2 
2 2 2 2 2 1 1 1 1 
2 2 2 2 2 2 2 2 1 
1 1 1 1 2 2 2 2 2 
2 2 2 1 1 1 1 1 1 
2 2 2 2 2 2 2 1 1 
1 1 1 1 2 2 2 2 2 
1 1 1 1 2 2 1 1 1 
0 0 0 0 0 0 0 0 0 
0 0 0 0 0 0 0 0 0 
0 0 0 0 0 0 0 1 1 
1 1 2 1 1 1 1 1 2 
2 2 2 2 2 2 1 1 1 
1 2 2 2 2 2 2 2 2 
1 1 1 1 1 2 2 1 1 
1 1 1 2 1 1 1 1 1 
1 2 2 2 2 2 2 2 1 
1 1 1 1 1 2 2 2 2 
2 1 1 1 1 2 2 1 1 
1 0 0 0 0 0 0 0 0 
0 0 0 0 0 0 0 0 0 
0 0 0 0 0 0 0 0 1 
1 1 1 2 1 1 1 1 1 
2 1 1 1 1 1 2 1 1 
1 1 2 1 1 1 1 1 1 
2 1 1 1 2 2 2 2 1 
1 1 1 1 2 2 2 2 2 
2 2 2 2 1 1 1 1 2 
1 1 1 1 1 1 2 2 2 
2 2 2 2 2 2 2 2 1 
1 1 0 0 0 0 0 0 0 
0 0 0 0 0 0 0 0 0 
0 0 0 0 0 0 0 0 0 
1 1 1 1 2 1 1 1 1 
1 2 1 1 1 1 1 2 1 
1 1 2 2 1 1 1 1 1 
1 2 1 1 2 2 2 2 2 
1 1 1 1 1 2 2 2 2 
1 1 1 1 2 1 1 1 1 
1 2 2 2 2 2 2 1 1 
1 1 1 1 1 1 2 2 2 
1 1 1 0 0 0 0 0 0 
0 0 0 0 0 0 0 0 0 
0 0 0 0 0 0 0 0 0 
0 2 2 2 2 2 1 1 1 
1 1 2 1 1 1 1 1 2 
1 1 1 2 2 1 1 1 1 
1 1 2 2 2 2 2 2 2 
2 1 1 1 1 1 2 2 2 
2 1 1 1 1 2 1 1 1 
1 1 2 2 2 2 2 2 1 
1 1 1 1 1 1 1 2 2 
2 1 1 1 0 0 0 0 0 
0 0 0 0 0 0 0 0 0 
0 0 0 0 0 0 0 0 0 
0 0 1 1 1 2 2 2 2 
2 2 2 2 2 1 1 1 1 
2 1 1 1 2 2 2 2 2 
1 1 1 2 2 1 1 1 1 
1 2 1 1 1 1 1 2 2 
2 1 1 1 1 1 2 1 1 
1 1 1 2 2 2 2 2 2 
1 1 1 1 1 1 1 1 2 
2 2 2 2 1 0 0 0 0 
0 0 0 0 0 0 0 0 0 
0 0 0 0 0 0 0 0 0 
0 0 0 1 1 1 2 2 2 
1 1 2 2 2 2 1 1 1 
2 2 1 1 1 2 2 2 2 
2 1 1 1 2 2 1 1 1 
1 1 2 2 2 2 2 2 2 
2 2 1 1 1 1 1 2 1 
1 1 1 1 2 2 1 1 1 
1 2 2 2 2 1 1 1 1 
2 1 1 1 1 1 0 0 0 
0 0 0 0 0 0 0 0 0 
0 0 0 0 0 0 0 0 0 
0 0 0 0 1 1 1 2 2 
2 1 1 1 2 2 2 2 2 
2 2 2 2 2 2 2 2 2 
2 2 2 1 1 2 2 1 1 
1 1 1 2 2 2 2 1 1 
2 2 2 1 1 1 1 2 2 
2 2 2 2 2 2 2 1 1 
1 1 1 2 2 2 2 2 2 
2 2 1 1 1 1 1 0 0 
0 0 0 0 0 0 0 0 0 
0 0 0 0 0 0 0 0 0 
0 0 0 0 0 1 1 1 2 
2 2 1 1 1 1 2 2 1 
1 1 1 1 2 2 2 1 1 
2 2 2 2 2 2 2 2 2 
1 1 1 1 2 2 2 1 1 
1 1 1 1 2 2 2 2 2 
2 1 1 1 1 1 1 2 1 
1 1 1 1 2 2 2 2 2 
2 2 2 2 1 1 1 1 0 
0 0 0 0 0 0 0 0 0 
0 0 0 0 0 0 0 0 0 
0 0 0 0 0 0 1 1 1 
2 2 2 1 1 1 1 2 2 
1 1 1 1 1 2 2 2 1 
1 1 1 1 1 1 2 2 2 
2 1 1 1 2 2 2 2 1 
1 1 1 1 1 2 2 2 2 
2 2 1 1 1 1 1 1 2 
1 1 1 1 1 2 2 2 2 
2 2 2 2 2 1 1 1 1 
0 0 0 0 0 0 0 0 0 
0 0 0 0 0 0 0 0 0 
0 0 0 0 0 0 0 1 1 
1 2 2 2 1 1 1 1 2 
2 1 1 1 1 1 2 2 2 
1 1 1 1 1 1 1 2 2 
2 2 1 1 1 2 2 2 2 
1 1 1 1 1 1 2 2 2 
2 2 2 1 1 1 1 1 1 
2 1 1 1 1 1 2 2 2 
2 2 2 2 2 2 1 1 1 
1 0 0 0 0 0 0 0 0 
0 0 0 0 0 0 0 0 0 
0 0 0 0 0 0 0 0 1 
1 1 2 2 2 1 1 1 1 
2 2 1 1 1 1 1 2 2 
2 1 1 1 1 1 1 1 2 
2 2 2 2 2 2 2 2 2 
1 1 1 1 1 1 1 2 2 
2 2 2 2 1 1 1 1 1 
1 2 2 1 1 1 1 1 2 
1 1 1 2 2 2 2 1 1 
1 0 0 0 0 0 0 0 0 
0 0 0 0 0 0 0 0 0 
0 0 0 0 0 0 0 0 0 
0 1 2 2 2 2 2 2 1 
1 1 1 1 1 1 1 1 2 
2 2 1 1 1 1 1 1 1 
2 2 2 1 1 1 1 1 1 
2 2 2 2 2 2 2 2 1 
1 1 1 1 1 2 2 2 2 
2 2 2 2 2 2 2 2 2 
2 1 1 1 1 2 2 2 1 
1 0 0 0 0 0 0 0 0 
0 0 0 0 0 0 0 0 0 
0 0 0 0 0 0 0 0 0 
0 0 0 1 1 1 1 1 1 
1 2 2 2 2 2 2 2 2 
2 2 2 2 2 2 2 2 2 
2 2 1 1 1 1 1 1 1 
1 2 2 2 2 2 2 2 2 
1 1 1 1 1 1 2 2 2 
2 2 1 1 1 1 1 2 2 
2 2 1 1 1 1 2 2 2 
1 0 0 0 0 0 0 0 0 
0 0 0 0 0 0 0 0 0 
0 0 0 0 0 0 0 0 0 
0 0 0 0 0 1 1 1 1 
1 1 2 2 1 1 1 1 2 
1 1 1 1 1 2 2 2 2 
2 2 2 1 1 1 1 1 1 
1 1 2 2 2 1 1 1 1 
1 2 1 1 1 1 1 2 2 
2 2 2 1 1 1 1 1 2 
2 2 2 1 1 1 1 1 1 
2 0 0 0 0 0 0 0 0 
0 0 0 0 0 0 0 0 0 
0 0 0 0 0 0 0 0 0 
0 0 0 0 0 0 0 1 1 
1 1 1 2 2 1 1 1 1 
2 1 1 1 1 1 2 2 2 
2 2 2 2 1 1 1 1 1 
1 1 1 2 2 2 1 1 1 
1 1 2 2 2 1 1 1 2 
2 2 2 2 1 1 1 1 1 
2 2 2 2 1 1 1 1 1 
1 0 0 0 0 0 0 0 0 
0 0 0 0 0 0 0 0 0 
0 0 0 0 0 0 0 0 0 
0 0 0 0 0 0 0 0 0 
1 1 1 1 2 2 1 1 1 
1 2 1 1 1 1 1 2 2 
2 2 2 2 2 2 2 2 2 
2 2 2 2 2 2 2 1 1 
1 1 1 2 2 2 2 1 1 
2 2 2 2 2 1 1 1 1 
1 2 2 2 2 1 1 1 1 
1 0 0 0 0 0 0 0 0 
0 0 0 0 0 0 0 0 0 
0 0 0 0 0 0 0 0 0 
0 0 0 0 0 0 0 0 0 
0 0 1 1 1 2 2 1 1 
1 1 2 1 1 1 1 1 2 
2 1 1 1 1 1 2 2 2 
2 1 1 1 1 1 1 2 1 
1 1 1 1 2 2 2 2 2 
2 1 1 1 1 1 2 1 1 
1 1 2 2 2 2 2 2 2 
2 0 0 0 0 0 0 0 0 
0 0 0 0 0 0 0 0 0 
0 0 0 0 0 0 0 0 0 
0 0 0 0 0 0 0 0 0 
0 0 0 0 1 1 2 2 2 
2 2 2 2 1 1 1 1 1 
2 1 1 1 1 1 1 2 2 
2 2 1 1 1 1 1 1 2 
1 1 1 2 2 2 2 2 2 
2 2 1 1 1 1 1 2 2 
2 2 2 1 1 1 1 1 1 
1 0 0 0 0 0 0 0 0 
0 0 0 0 0 0 0 0 0 
0 0 0 0 0 0 0 0 0 
0 0 0 0 0 0 0 0 0 
0 0 0 0 0 0 1 1 1 
1 1 1 1 2 2 2 2 2 
2 2 1 1 1 1 1 1 2 
2 2 2 1 1 1 1 1 1 
2 2 2 2 1 1 1 1 1 
2 2 2 1 1 1 1 1 2 
2 2 2 2 1 1 1 1 1 
1 0 0 0 0 0 0 0 0 
0 0 0 0 0 0 0 0 0 
0 0 0 0 0 0 0 0 0 
0 0 0 0 0 0 0 0 0 
0 0 0 0 0 0 0 0 1 
1 1 1 1 1 2 2 2 2 
2 2 2 1 1 1 1 1 1 
2 2 2 2 1 1 1 1 1 
1 2 2 2 2 1 1 1 1 
1 1 2 2 1 1 1 1 1 
2 2 2 2 2 1 1 1 1 
1 0 0 0 0 0 0 0 0 
0 0 0 0 0 0 0 0 0 
0 0 0 0 0 0 0 0 0 
0 0 0 0 0 0 0 0 0 
0 0 0 0 0 0 0 0 0 
0 1 1 1 1 1 2 2 2 
2 2 2 2 1 1 1 1 1 
1 2 2 2 2 2 2 2 2 
2 2 2 2 2 2 1 1 1 
1 1 1 1 1 1 1 1 1 
1 2 2 2 2 2 1 1 1 
1 0 0 0 0 0 0 0 0 
0 0 0 0 0 0 0 0 0 
0 0 0 0 0 0 0 0 0 
0 0 0 0 0 0 0 0 0 
0 0 0 0 0 0 0 0 0 
0 0 0 1 1 1 1 2 2 
2 2 2 2 2 2 2 2 2 
2 2 2 1 1 1 1 1 1 
2 2 2 2 2 2 2 1 1 
1 1 1 1 2 2 2 2 2 
2 2 2 2 2 2 2 2 1 
1 0 0 0 0 0 0 0 0 
0 0 0 0 0 0 0 0 0 
0 0 0 0 0 0 0 0 0 
0 0 0 0 0 0 0 0 0 
0 0 0 0 0 0 0 0 0 
0 0 0 0 0 1 1 1 2 
2 1 1 1 1 1 1 2 2 
2 2 2 2 1 1 1 1 1 
1 2 1 1 1 1 1 1 2 
2 2 2 2 2 2 2 2 2 
2 1 1 1 1 1 1 1 2 
1 0 0 0 0 0 0 0 0 
0 0 0 0 0 0 0 0 0 
0 0 0 0 0 0 0 0 0 
0 0 0 0 0 0 0 0 0 
0 0 0 0 0 0 0 0 0 
0 0 0 0 0 0 0 1 1 
2 1 1 1 1 1 1 1 2 
2 2 2 2 2 1 1 1 1 
1 1 2 1 1 1 1 1 1 
2 2 1 1 1 1 1 1 1 
2 2 1 1 1 1 1 1 1 
2 0 0 0 0 0 0 0 0 
0 0 0 0 0 0 0 0 0 
0 0 0 0 0 0 0 0 0 
0 0 0 0 0 0 0 0 0 
0 0 0 0 0 0 0 0 0 
0 0 0 0 0 0 0 0 0 
1 2 1 1 1 1 1 1 1 
2 2 2 2 2 2 1 1 1 
1 1 1 2 1 1 1 1 1 
1 2 2 1 1 1 1 1 1 
1 2 2 1 1 1 1 1 1 
1 0 0 0 0 0 0 0 0 
0 0 0 0 0 0 0 0 0 
0 0 0 0 0 0 0 0 0 
0 0 0 0 0 0 0 0 0 
0 0 0 0 0 0 0 0 0 
0 0 0 0 0 0 0 0 0 
0 0 1 1 1 1 1 1 1 
1 2 2 2 2 2 2 1 1 
1 1 1 1 2 1 1 1 1 
1 1 1 1 1 1 1 1 1 
1 1 1 1 1 1 1 1 1 
1 0 0 0 0 0 0 0 0 
0 0 0 0 0 0 0 0 0 
0 0 0 0 0 0 0 0 0 
0 0 0 0 0 0 0 0 0 
0 0 0 0 0 0 0 0 0 
0 0 0 0 0 0 0 0 0 
0 0 0 0 0 0 0 0 0 
0 0 0 0 0 0 0 0 0 
0 0 0 0 0 0 0 0 0 
0 0 0 0 0 0 0 0 0 
0 0 0 0 0 0 0 0 0 
0 0 0 0 0 0 0 0 0 
0 0 0 0 0 0 0 0 0 
0 0 0 0 0 0 0 0 0 
0 0 0 0 0 0 0 0 0 
0 0 0 0 0 0 0 0 0 
0 0 0 0 0 0 0 0 0 
0 0 0 0 0 0 0 0 0 
0 0 0 0 0 0 0 0 0 
0 0 0 0 0 0 0 0 0 
0 0 0 0 0 0 0 0 0 
0 0 0 0 0 0 0 0 0 
0 0 0 0 0 0 0 0 0 
0 0 0 0 0 0 0 0 0 
0 0 0 0 0 0 0 0 0 
0 0 0 0 0 0 0 0 0 
0 0 0 0 0 0 0 0 0 
0 0 0 0 0 0 0 0 0 
0 0 0 0 0 0 0 0 0 
0 0 0 0 0 0 0 0 0 
0 0 0 0 0 0 0 0 0 
0 0 0 0 0 0 0 0 0 
0 0 0 0 0 0 0 0 0 
0 0 0 0 0 0 0 0 0 
0 0 0 0 0 0 0 0 0 
0 0 0 0 0 0 0 0 0 
0 0 0 0 0 0 0 0 0 
0 0 0 0 0 0 0 0 0 
0 0 0 0 0 0 0 0 0 
0 0 0 0 0 0 0 0 0 
0 0 0 0 0 0 0 0 0 
0 0 0 0 0 0 0 0 0 
0 0 0 0 0 0 0 0 0 
0 0 0 0 0 0 0 0 0 
0 0 0 0 0 0 0 0 0 
0 0 0 0 0 0 0 0 0 
0 0 0 0 0 0 0 0 0 
0 0 0 0 0 0 0 0 0 
0 0 0 0 0 0 0 0 0 
0 0 0 0 0 0 0 0 0 
0 0 0 0 0 0 0 0 0 
0 0 0 0 0 0 0 0 0 
0 0 0 0 0 0 0 0 0 
0 0 0 0 0 0 0 0 0 
0 0 0 0 0 0 0 0 0 
0 0 0 0 0 0 0 0 0 
0 0 0 0 0 0 0 0 0 
0 0 0 0 0 0 0 0 0 
0 0 0 0 0 0 0 0 0 
0 0 0 0 0 0 0 0 0 
0 0 0 0 0 0 0 0 0 
0 0 0 0 0 0 0 0 0 
0 0 0 0 0 0 0 0 0 
0 0 0 0 0 0 0 0 0 
0 0 0 0 0 0 0 0 0 
0 0 0 0 0 0 0 0 0 
0 0 0 0 0 0 0 0 0 
0 0 0 0 0 0 0 0 0 
0 0 0 0 0 0 0 0 0 
0 0 0 0 0 0 0 0 0 
0 0 0 0 0 0 0 0 0 
0 0 0 0 0 0 0 0 0 
0 0 0 0 0 0 0 0 0 
0 0 0 0 0 0 0 0 0 
0 0 0 0 0 0 0 0 0 
0 0 0 0 0 0 0 0 0 
0 0 0 0 0 0 0 0 0 
0 0 0 0 0 0 0 0 0 
0 0 0 0 0 0 0 0 0 
0 0 0 0 0 0 0 0 0 
0 0 0 0 0 0 0 0 0 
0 0 0 0 0 0 0 0 0 
0 0 0 0 0 0 0 0 0 
0 0 0 0 0 0 0 0 0 
0 0 0 0 0 0 0 0 0 
0 0 0 0 0 0 0 0 0 
0 0 0 0 0 0 0 0 0 
0 0 0 0 0 0 0 0 0 
0 0 0 0 0 0 0 0 0 
0 0 0 0 0 0 0 0 0 
0 0 0 0 0 0 0 0 0 
0 0 0 0 0 0 0 0 0 
0 0 0 0 0 0 0 0 0 
0 0 0 0 0 0 0 0 0 
0 0 0 0 0 0 0 0 0 
0 0 0 0 0 0 0 0 0 
0 0 0 0 0 0 0 0 0 
0 0 0 0 0 0 0 0 0 
0 0 0 0 0 0 0 0 0 
0 0 0 0 0 0 0 0 0 
0 0 0 0 0 0 0 0 0 
0 0 0 0 0 0 0 0 0 
0 0 0 0 0 0 0 0 0 
0 0 0 0 0 0 0 0 0 
0 0 0 0 0 0 0 0 0 
0 0 0 0 0 0 0 0 0 
0 0 0 0 0 0 0 0 0 
0 0 0 0 0 0 0 0 0 
0 0 0 0 0 0 0 0 0 
0 0 0 0 0 0 0 0 0 
0 0 0 0 0 0 0 0 0 
0 0 0 0 0 0 0 0 0 
0 0 0 0 0 0 0 0 0 
0 0 0 0 0 0 0 0 0 
0 
CellId 1 10000 long
0 0 0 0 0 0 0 0 0 
0 0 0 0 0 0 0 0 0 
0 0 0 0 0 0 0 0 0 
0 0 0 0 0 0 0 0 0 
0 0 0 0 0 0 0 0 0 
0 0 0 0 0 0 0 0 0 
0 0 0 0 0 0 0 0 0 
0 0 0 0 0 0 0 0 0 
0 0 0 0 0 0 0 0 0 
0 0 0 0 0 0 0 0 0 
0 0 0 0 0 0 0 0 0 
0 0 0 0 0 0 0 0 0 
0 0 0 0 0 0 0 0 0 
0 0 0 0 0 0 0 0 0 
0 0 0 0 0 0 0 0 0 
0 0 0 0 0 0 0 0 0 
0 0 0 0 0 0 0 0 0 
0 0 0 0 0 0 0 0 0 
0 0 0 0 0 0 0 0 0 
0 0 0 0 0 0 0 0 0 
0 0 0 0 0 0 0 0 0 
0 0 0 0 0 0 0 0 0 
0 0 0 0 0 0 0 0 0 
0 0 0 0 0 0 0 0 0 
0 0 0 0 0 0 0 0 0 
0 0 0 0 0 0 0 0 0 
0 0 0 0 0 0 0 0 0 
0 0 0 0 0 0 0 0 0 
0 0 0 0 0 0 0 0 0 
0 0 0 0 0 0 0 0 0 
0 0 0 0 0 0 0 0 0 
0 0 0 0 0 0 0 0 0 
0 0 0 0 0 0 0 0 0 
0 0 0 0 0 0 0 0 0 
0 0 0 0 0 0 0 0 0 
0 0 0 0 0 0 0 0 0 
0 0 0 0 0 0 0 0 0 
0 0 0 0 0 0 0 0 0 
0 0 0 0 0 0 0 0 0 
0 0 0 0 0 0 0 0 0 
0 0 0 0 0 0 0 0 0 
0 0 0 0 0 0 0 0 0 
0 0 0 0 0 0 0 0 0 
0 0 0 0 0 0 0 0 0 
0 0 0 0 0 0 0 0 0 
0 0 0 0 0 0 0 0 0 
0 0 0 0 0 0 0 0 0 
0 0 0 0 0 0 0 0 0 
0 0 0 0 0 0 0 0 0 
0 0 0 0 0 0 0 0 0 
0 0 0 0 0 0 0 0 0 
0 0 0 0 0 0 0 0 0 
0 0 0 0 0 0 0 0 0 
0 0 0 0 0 0 0 0 0 
0 0 0 0 0 0 0 0 0 
0 0 0 0 0 0 0 0 0 
0 0 0 0 0 0 0 0 0 
0 0 0 0 0 0 0 0 0 
0 0 0 0 0 0 0 0 0 
0 0 0 0 0 0 0 0 0 
0 0 0 0 0 0 0 0 0 
0 0 0 0 0 0 0 0 0 
0 0 0 0 0 0 0 0 0 
0 0 0 0 0 0 0 0 0 
0 0 0 0 0 0 0 0 0 
0 0 0 0 0 0 0 0 0 
0 0 0 0 0 0 0 0 0 
0 0 0 0 0 0 0 0 0 
0 0 0 0 0 0 0 0 0 
0 0 0 0 0 0 0 0 0 
0 0 0 0 0 0 0 0 0 
0 0 0 0 0 0 0 0 0 
0 0 0 0 0 0 0 0 0 
0 0 0 0 0 0 0 0 0 
0 0 0 0 0 0 0 0 0 
0 0 0 0 0 0 0 0 0 
0 0 0 0 0 0 0 0 0 
0 0 0 0 0 0 0 0 0 
0 0 0 0 0 0 0 0 0 
0 0 0 0 0 0 0 0 0 
0 0 0 0 0 0 0 0 0 
0 0 0 0 0 0 0 0 0 
0 0 0 0 0 0 0 0 0 
0 0 0 0 0 0 0 0 0 
0 0 0 0 0 0 0 0 0 
0 0 0 0 0 0 0 0 0 
0 0 0 0 0 0 0 0 0 
0 0 0 0 0 0 0 0 0 
0 0 0 0 0 0 0 0 0 
0 0 0 0 0 0 0 0 0 
0 0 0 0 0 0 0 0 0 
0 0 0 0 0 0 0 0 0 
0 0 0 0 0 0 0 0 0 
0 0 0 0 0 0 0 0 0 
0 0 0 0 0 0 0 0 0 
0 0 0 0 0 0 0 0 0 
0 0 0 0 0 0 0 0 0 
0 0 0 0 0 0 0 0 0 
0 0 0 0 0 0 0 0 0 
0 0 0 0 0 0 0 0 0 
0 0 0 0 0 0 0 0 0 
0 0 0 0 0 0 0 0 0 
0 0 0 0 0 0 0 0 0 
0 0 0 0 0 0 0 0 0 
0 0 0 0 0 0 0 0 0 
0 0 0 0 0 0 0 0 0 
0 0 0 0 0 0 0 0 0 
0 0 0 0 0 0 0 0 0 
0 0 0 0 0 0 0 0 0 
0 0 0 0 0 0 0 0 0 
0 0 0 0 0 0 0 0 0 
0 0 0 0 0 0 0 0 0 
0 0 0 0 0 0 0 0 0 
0 0 0 0 0 0 0 0 0 
0 0 0 0 0 0 0 0 0 
0 0 0 0 0 0 0 0 0 
0 0 0 0 0 0 0 0 0 
0 0 0 0 0 0 0 0 0 
0 0 0 0 0 0 0 0 0 
0 0 0 0 0 0 0 0 0 
0 0 0 0 0 0 0 0 0 
0 0 0 0 0 0 0 0 0 
0 0 0 0 0 0 0 0 0 
0 0 0 0 0 0 0 0 0 
0 0 0 0 0 0 0 0 0 
0 0 0 0 0 0 0 0 0 
0 0 0 0 0 0 0 0 0 
0 0 0 0 0 0 0 0 0 
0 0 0 0 0 0 0 0 0 
0 0 0 0 0 0 0 0 0 
0 0 0 0 0 0 0 0 0 
0 0 0 0 0 0 0 0 0 
0 0 0 0 0 0 0 0 0 
0 0 0 0 0 0 0 0 0 
0 0 0 0 0 0 0 0 0 
0 0 0 0 0 0 0 0 0 
0 0 0 0 0 0 0 0 0 
0 0 0 0 0 0 0 0 0 
0 0 0 0 0 0 0 0 0 
0 0 0 0 0 0 0 0 0 
0 0 0 0 0 0 0 0 0 
0 0 0 0 0 0 0 0 0 
0 0 0 0 0 0 0 0 0 
0 0 0 0 0 0 0 0 0 
0 0 0 0 0 0 0 0 0 
0 0 0 0 0 0 0 0 0 
0 0 0 0 0 0 0 0 0 
0 0 0 0 0 0 0 0 0 
0 0 0 0 0 0 0 0 0 
0 0 0 0 0 0 0 0 0 
0 0 0 0 0 0 0 0 0 
0 0 0 0 0 0 0 0 0 
0 0 0 0 0 0 0 0 0 
0 0 0 0 0 0 0 0 0 
0 0 0 0 0 0 0 0 0 
0 0 0 0 0 0 0 0 0 
0 0 0 0 0 0 0 0 0 
0 0 0 0 0 0 0 0 0 
0 0 0 0 0 0 0 0 0 
0 0 0 0 0 0 0 0 0 
0 0 0 0 0 0 0 0 0 
0 0 0 0 0 0 0 0 0 
0 0 0 0 0 0 0 0 0 
0 0 0 0 0 0 0 0 0 
0 0 0 0 0 0 0 0 0 
0 0 0 0 0 0 0 0 0 
0 0 0 0 0 0 0 0 0 
0 0 0 0 0 0 0 0 0 
0 0 0 0 0 0 0 0 0 
0 0 0 0 0 0 0 0 0 
0 9 9 9 9 9 9 1 1 
2 2 2 2 2 2 2 2 3 
3 12 12 12 12 12 12 12 5 
5 5 5 5 5 5 6 6 6 
6 6 6 6 6 7 7 7 0 
0 0 0 0 0 0 0 0 0 
0 0 0 0 0 0 0 0 0 
0 0 0 0 0 0 0 0 0 
0 0 0 0 0 0 0 0 0 
0 0 0 0 0 0 0 0 0 
0 0 0 0 0 0 0 0 0 
0 9 9 9 9 9 9 9 1 
1 2 2 2 2 2 2 2 3 
3 3 12 12 12 12 12 12 12 
5 5 5 5 5 5 5 6 6 
6 6 6 6 6 7 7 7 7 
7 0 0 0 0 0 0 0 0 
0 0 0 0 0 0 0 0 0 
0 0 0 0 0 0 0 0 0 
0 0 0 0 0 0 0 0 0 
0 0 0 0 0 0 0 0 0 
0 0 0 0 0 0 0 0 0 
0 8 8 9 9 9 9 9 9 
1 1 1 2 2 2 2 2 3 
3 3 3 12 12 12 12 12 12 
12 5 5 5 5 5 5 5 6 
6 6 6 6 6 6 7 7 7 
7 7 7 0 0 0 0 0 0 
0 0 0 0 0 0 0 0 0 
0 0 0 0 0 0 0 0 0 
0 0 0 0 0 0 0 0 0 
0 0 0 0 0 0 0 0 0 
0 0 0 0 0 0 0 0 0 
0 8 8 8 9 9 9 9 9 
9 1 1 1 1 2 2 2 2 
3 3 3 3 12 12 12 12 12 
12 12 5 5 5 5 5 5 5 
5 6 6 6 6 6 6 7 7 
7 7 7 7 7 0 0 0 0 
0 0 0 0 0 0 0 0 0 
0 0 0 0 0 0 0 0 0 
0 0 0 0 0 0 0 0 0 
0 0 0 0 0 0 0 0 0 
0 0 0 0 0 0 0 0 0 
0 8 8 8 8 9 9 9 10 
10 10 1 1 1 1 1 1 3 
3 3 3 3 3 4 4 4 4 
4 4 4 4 14 14 14 14 14 
14 16 16 16 16 16 16 16 7 
7 7 7 7 7 7 18 0 0 
0 0 0 0 0 0 0 0 0 
0 0 0 0 0 0 0 0 0 
0 0 0 0 0 0 0 0 0 
0 0 0 0 0 0 0 0 0 
0 0 0 0 0 0 0 0 0 
0 8 8 8 8 8 8 10 10 
10 10 10 1 1 1 1 1 1 
3 3 3 3 3 3 4 4 4 
4 4 4 4 4 14 14 14 14 
14 14 14 16 16 16 16 16 16 
28 28 28 28 18 18 18 18 18 
0 0 0 0 0 0 0 0 0 
0 0 0 0 0 0 0 0 0 
0 0 0 0 0 0 0 0 0 
0 0 0 0 0 0 0 0 0 
0 0 0 0 0 0 0 0 0 
0 20 8 8 8 8 8 8 10 
10 10 10 10 11 11 11 11 11 
11 3 3 3 24 24 24 4 4 
4 4 4 4 4 4 14 14 14 
14 14 14 14 16 16 16 16 16 
16 28 28 28 28 18 18 18 18 
18 18 0 0 0 0 0 0 0 
0 0 0 0 0 0 0 0 0 
0 0 0 0 0 0 0 0 0 
0 0 0 0 0 0 0 0 0 
0 0 0 0 0 0 0 0 0 
0 20 20 20 8 8 8 8 8 
10 10 10 10 10 11 11 11 11 
11 11 3 24 24 24 24 24 13 
25 25 25 25 4 4 4 14 14 
14 14 14 14 14 16 16 16 16 
28 28 28 28 28 28 18 18 18 
18 18 18 18 0 0 0 0 0 
0 0 0 0 0 0 0 0 0 
0 0 0 0 0 0 0 0 0 
0 0 0 0 0 0 0 0 0 
0 0 0 0 0 0 0 0 0 
0 20 20 20 20 21 21 21 21 
21 10 10 10 10 11 11 11 11 
11 11 11 23 23 24 24 24 24 
13 25 25 25 25 25 25 26 26 
26 26 15 15 15 15 15 15 15 
15 28 28 28 28 28 28 18 18 
18 18 18 18 18 30 0 0 0 
0 0 0 0 0 0 0 0 0 
0 0 0 0 0 0 0 0 0 
0 0 0 0 0 0 0 0 0 
0 0 0 0 0 0 0 0 0 
0 20 20 20 20 20 21 21 21 
21 21 10 10 10 10 11 11 11 
11 11 11 11 23 23 24 24 24 
24 13 25 25 25 25 25 25 26 
26 26 26 39 39 39 15 15 15 
15 15 28 28 28 17 17 17 17 
17 17 30 30 30 30 30 30 0 
0 0 0 0 0 0 0 0 0 
0 0 0 0 0 0 0 0 0 
0 0 0 0 0 0 0 0 0 
0 0 0 0 0 0 0 0 0 
0 20 20 20 20 20 20 21 21 
21 21 21 21 21 21 22 22 22 
22 22 22 22 23 23 23 24 24 
24 24 13 13 25 25 25 25 25 
26 26 26 39 39 39 39 15 15 
15 15 15 28 28 28 17 17 17 
17 17 17 30 30 30 30 30 30 
30 0 0 0 0 0 0 0 0 
0 0 0 0 0 0 0 0 0 
0 0 0 0 0 0 0 0 0 
0 0 0 0 0 0 0 0 0 
0 32 20 20 20 20 20 20 33 
33 33 21 21 21 21 21 22 22 
22 22 22 22 22 23 23 23 24 
24 24 24 13 13 25 25 25 25 
25 26 26 26 39 39 39 39 15 
15 15 15 15 28 28 28 17 17 
17 17 17 17 30 30 30 30 30 
31 31 31 0 0 0 0 0 0 
0 0 0 0 0 0 0 0 0 
0 0 0 0 0 0 0 0 0 
0 0 0 0 0 0 0 0 0 
0 32 32 32 32 19 19 19 20 
33 33 33 21 21 21 34 34 22 
22 22 22 22 22 22 35 23 23 
23 24 24 24 13 13 13 13 26 
26 26 26 26 26 39 39 39 39 
15 15 15 15 15 41 41 41 17 
17 17 17 17 17 30 30 30 30 
31 31 31 31 31 0 0 0 0 
0 0 0 0 0 0 0 0 0 
0 0 0 0 0 0 0 0 0 
0 0 0 0 0 0 0 0 0 
0 32 32 32 32 32 19 19 19 
19 33 33 33 33 33 34 34 34 
34 22 22 22 22 22 22 35 23 
23 23 23 23 13 13 13 13 38 
38 26 26 26 26 26 39 39 39 
39 15 40 40 40 40 41 41 41 
42 42 42 42 17 17 30 30 30 
30 31 31 31 31 31 44 0 0 
0 0 0 0 0 0 0 0 0 
0 0 0 0 0 0 0 0 0 
0 0 0 0 0 0 0 0 0 
0 32 32 32 32 32 32 19 19 
19 19 33 33 33 33 33 34 34 
34 34 34 35 35 35 35 35 35 
23 23 23 23 23 13 13 13 13 
38 38 38 38 38 38 27 39 39 
39 39 27 40 40 40 40 41 41 
41 42 42 42 42 42 29 29 29 
29 31 31 31 31 31 31 44 44 
0 0 0 0 0 0 0 0 0 
0 0 0 0 0 0 0 0 0 
0 0 0 0 0 0 0 0 0 
0 45 45 32 32 32 32 32 19 
19 19 19 33 33 33 33 33 34 
34 34 34 34 35 35 35 35 35 
35 23 23 23 23 23 13 13 13 
13 38 38 38 38 38 38 27 27 
27 27 27 27 40 40 40 40 41 
41 41 42 42 42 42 42 29 29 
29 29 43 43 43 31 31 31 44 
44 44 0 0 0 0 0 0 0 
0 0 0 0 0 0 0 0 0 
0 0 0 0 0 0 0 0 0 
0 45 45 45 45 32 32 32 19 
19 19 19 19 33 33 33 33 49 
49 34 34 34 34 35 35 35 35 
35 35 48 36 36 36 36 13 13 
13 38 38 38 38 38 38 38 27 
27 27 27 27 27 40 40 40 40 
41 41 41 42 42 42 42 29 29 
29 29 29 43 43 43 43 43 31 
44 44 44 44 0 0 0 0 0 
0 0 0 0 0 0 0 0 0 
0 0 0 0 0 0 0 0 0 
0 0 45 45 45 45 45 46 46 
46 46 19 19 19 33 33 33 33 
49 49 49 34 34 34 35 35 35 
35 35 48 48 36 36 36 36 36 
36 53 38 38 38 38 38 38 38 
27 27 27 27 27 27 40 40 40 
40 41 41 41 42 42 42 29 29 
29 29 29 29 43 43 43 43 43 
31 44 44 44 44 0 0 0 0 
0 0 0 0 0 0 0 0 0 
0 0 0 0 0 0 0 0 0 
0 0 0 45 45 45 45 45 46 
46 46 46 19 19 19 47 47 47 
47 49 49 49 49 49 48 48 48 
48 48 48 48 48 36 36 36 36 
36 36 53 53 53 53 53 53 53 
27 27 27 27 27 27 27 40 40 
40 40 41 41 41 42 42 29 29 
29 29 29 29 29 43 43 43 43 
43 31 44 44 44 44 0 0 0 
0 0 0 0 0 0 0 0 0 
0 0 0 0 0 0 0 0 0 
0 0 0 0 45 45 45 45 45 
46 46 46 46 46 47 47 47 47 
47 47 49 49 49 49 49 48 48 
48 48 48 48 48 48 36 36 36 
36 36 36 53 53 53 53 53 53 
53 54 54 54 54 54 54 27 40 
40 41 41 41 41 41 42 42 29 
29 57 57 57 57 29 43 43 43 
43 43 31 44 44 44 44 0 0 
0 0 0 0 0 0 0 0 0 
0 0 0 0 0 0 0 0 0 
0 0 0 0 0 45 45 45 45 
45 46 46 46 46 46 47 47 47 
47 47 47 49 49 49 49 49 48 
48 48 48 48 48 48 48 36 36 
36 36 37 37 53 53 53 53 53 
53 53 54 54 54 54 54 54 55 
55 55 70 70 70 70 56 56 56 
56 57 57 57 57 57 59 43 43 
43 43 59 59 44 44 44 44 0 
0 0 0 0 0 0 0 0 0 
0 0 0 0 0 0 0 0 0 