# vtk DataFile Version 5.1
vtk output
ASCII
DATASET STRUCTURED_POINTS
DIMENSIONS 100 100 1
SPACING 1 1 1
ORIGIN 0 0 0
POINT_DATA 10000
FIELD FieldData 3
CellType 1 10000 char
0 0 0 0 0 0 0 0 0 
0 0 0 0 0 0 0 0 0 
0 0 0 0 0 0 0 0 0 
0 0 0 0 0 0 0 0 0 
0 0 0 0 0 0 0 0 0 
0 0 0 0 0 0 0 0 0 
0 0 0 0 0 0 0 0 0 
0 0 0 0 0 0 0 0 0 
0 0 0 0 0 0 0 0 0 
0 0 0 0 0 0 0 0 0 
0 0 0 0 0 0 0 0 0 
0 0 0 0 0 0 0 0 0 
0 0 0 0 0 0 0 0 0 
0 0 0 0 0 0 0 0 0 
0 0 0 0 0 0 0 0 0 
0 0 0 0 0 0 0 0 0 
0 0 0 0 0 0 0 0 0 
0 0 0 0 0 0 0 0 0 
0 0 0 0 0 0 0 0 0 
0 0 0 0 0 0 0 0 0 
0 0 0 0 0 0 0 0 0 
0 0 0 0 0 0 0 0 0 
0 0 0 0 0 0 0 0 0 
0 0 0 0 0 0 0 0 0 
0 0 0 0 0 0 0 0 0 
0 0 0 0 0 0 0 0 0 
0 0 0 0 0 0 0 0 0 
0 0 0 0 0 0 0 0 0 
0 0 0 0 0 0 0 0 0 
0 0 0 0 0 0 0 0 0 
0 0 0 0 0 0 0 0 0 
0 0 0 0 0 0 0 0 0 
0 0 0 0 0 0 0 0 0 
0 0 0 0 0 0 0 0 0 
0 0 0 0 0 0 0 0 0 
0 0 0 0 0 0 0 0 0 
0 0 0 0 0 0 0 0 0 
0 0 0 0 0 0 0 0 0 
0 0 0 0 0 0 0 0 0 
0 0 0 0 0 0 0 0 0 
0 0 0 0 0 0 0 0 0 
0 0 0 0 0 0 0 0 0 
0 0 0 0 0 0 0 0 0 
0 0 0 0 0 0 0 0 0 
0 0 0 0 0 0 0 0 0 
0 0 0 0 0 0 0 0 0 
0 0 0 0 0 0 0 0 0 
0 0 0 0 0 0 0 0 0 
0 0 0 0 0 0 0 0 0 
0 0 0 0 0 0 0 0 0 
0 0 0 0 0 0 0 0 0 
0 0 0 0 0 0 0 0 0 
0 0 0 0 0 0 0 0 0 
0 0 0 0 0 0 0 0 0 
0 0 0 0 0 0 0 0 0 
0 0 0 0 0 0 0 0 0 
0 0 0 0 0 0 0 0 0 
0 0 0 0 0 0 0 0 0 
0 0 0 0 0 0 0 0 0 
0 0 0 0 0 0 0 0 0 
0 0 0 0 0 0 0 0 0 
0 0 0 0 0 0 0 0 0 
0 0 0 0 0 0 0 0 0 
0 0 0 0 0 0 0 0 0 
0 0 0 0 0 0 0 0 0 
0 0 0 0 0 0 0 0 0 
0 0 0 0 0 0 0 0 0 
0 0 0 0 0 0 0 0 0 
0 0 0 0 0 0 0 0 0 
0 0 0 0 0 0 0 0 0 
0 0 0 0 0 0 0 0 0 
0 0 0 0 0 0 0 0 0 
0 0 0 0 0 0 0 0 0 
0 0 0 0 0 0 0 0 0 
0 0 0 0 0 0 0 0 0 
0 0 0 0 0 0 0 0 0 
0 0 0 0 0 0 0 0 0 
0 0 0 0 0 0 0 0 0 
0 0 0 0 0 0 0 0 0 
0 0 0 0 0 0 0 0 0 
0 0 0 0 0 0 0 0 0 
0 0 0 0 0 0 0 0 0 
0 0 0 0 0 0 0 0 0 
0 0 0 0 0 0 0 0 0 
0 0 0 0 0 0 0 0 0 
0 0 0 0 0 0 0 0 0 
0 0 0 0 0 0 0 0 0 
0 0 0 0 0 0 0 0 0 
0 0 0 0 0 0 0 0 0 
0 0 0 0 0 0 0 0 0 
0 0 0 0 0 0 0 0 0 
0 0 0 0 0 0 0 0 0 
0 0 0 0 0 0 0 0 0 
0 0 0 0 0 0 0 0 0 
0 0 0 0 0 0 0 0 0 
0 0 0 0 0 0 0 0 0 
0 0 0 0 0 0 0 0 0 
0 0 0 0 0 0 0 0 0 
0 0 0 0 0 0 0 0 0 
0 0 0 0 0 0 0 0 0 
0 0 0 0 0 0 0 0 0 
0 0 0 0 0 0 0 0 0 
0 0 0 0 0 0 0 0 0 
0 0 0 0 0 0 0 0 0 
0 0 0 0 0 0 0 0 0 
0 0 0 0 0 0 0 0 0 
0 0 0 0 0 0 0 0 0 
0 0 0 0 0 0 0 0 0 
0 0 0 0 0 0 0 0 0 
0 0 0 0 0 0 0 0 0 
0 0 0 0 0 0 0 0 0 
0 0 0 0 0 0 0 0 0 
0 0 0 0 0 0 0 0 0 
0 0 0 0 0 0 0 0 0 
0 0 0 0 0 0 0 0 0 
0 0 0 0 0 0 0 0 0 
0 0 0 0 0 0 0 0 0 
0 0 0 0 0 0 0 0 0 
0 0 0 0 0 0 0 0 0 
0 0 0 0 0 0 0 0 0 
0 0 0 0 0 0 0 0 0 
0 0 0 0 0 0 0 0 0 
0 0 0 0 0 0 0 0 0 
0 0 0 0 0 0 0 0 0 
0 0 0 0 0 0 0 0 0 
0 0 0 0 0 0 0 0 0 
0 0 0 0 0 0 0 0 0 
0 0 0 0 0 0 0 0 0 
0 0 0 0 0 0 0 0 0 
0 0 0 0 0 0 0 0 0 
0 0 0 0 0 0 0 0 0 
0 0 0 0 0 0 0 0 0 
0 0 0 0 0 0 0 0 0 
0 0 0 0 0 0 0 0 0 
0 0 0 0 0 0 0 0 0 
0 0 0 0 0 0 0 0 0 
0 0 0 0 0 0 0 0 0 
0 0 0 0 0 0 0 0 0 
0 0 0 0 0 0 0 0 0 
0 0 0 0 0 0 0 0 0 
0 0 0 0 0 0 0 0 0 
0 0 0 0 0 0 0 0 0 
0 0 0 0 0 0 0 0 0 
0 0 0 0 0 0 0 0 0 
0 0 0 0 0 0 0 0 0 
0 0 0 0 0 0 0 0 0 
0 0 0 0 0 0 0 0 0 
0 0 0 0 0 0 0 0 0 
0 0 0 0 0 0 0 0 0 
0 0 0 0 0 0 0 0 0 
0 0 0 0 0 0 0 0 0 
0 0 0 0 0 0 0 0 0 
0 0 0 0 0 0 0 0 0 
0 0 0 0 0 0 0 0 0 
0 0 0 0 0 0 0 0 0 
0 0 0 0 0 0 0 0 0 
0 0 0 0 0 0 0 0 0 
0 0 0 0 0 0 0 0 0 
0 0 0 0 0 0 0 0 0 
0 0 0 0 0 0 0 0 0 
0 0 0 0 0 0 0 0 0 
0 0 0 0 0 0 0 0 0 
0 0 0 0 0 0 0 0 0 
0 0 0 0 0 0 0 0 0 
0 0 0 0 0 0 0 0 0 
0 0 0 0 0 0 0 0 0 
0 0 0 0 0 0 0 0 0 
0 0 0 0 0 0 0 0 0 
0 0 0 0 0 0 0 0 0 
0 0 0 0 0 0 0 0 0 
0 2 2 2 2 2 1 1 1 
1 1 1 1 2 2 2 2 2 
2 1 1 1 1 1 1 1 2 
2 2 2 2 1 1 1 1 1 
2 2 2 2 1 1 1 1 1 
0 0 0 0 0 0 0 0 0 
0 0 0 0 0 0 0 0 0 
0 0 0 0 0 0 0 0 0 
0 0 0 0 0 0 0 0 0 
0 0 0 0 0 0 0 0 0 
0 0 0 0 0 0 0 0 0 
0 1 2 2 2 2 2 1 1 
1 1 1 1 1 2 2 2 2 
2 2 1 1 1 1 1 1 1 
2 2 2 2 2 1 1 1 1 
1 2 2 2 2 1 1 1 1 
1 1 0 0 0 0 0 0 0 
0 0 0 0 0 0 0 0 0 
0 0 0 0 0 0 0 0 0 
0 0 0 0 0 0 0 0 0 
0 0 0 0 0 0 0 0 0 
0 0 0 0 0 0 0 0 0 
0 1 1 1 2 2 2 2 1 
1 1 1 1 1 1 2 2 2 
2 2 2 1 1 1 1 1 1 
1 2 2 2 2 2 1 1 1 
1 1 2 2 2 2 1 1 1 
1 1 1 2 0 0 0 0 0 
0 0 0 0 0 0 0 0 0 
0 0 0 0 0 0 0 0 0 
0 0 0 0 0 0 0 0 0 
0 0 0 0 0 0 0 0 0 
0 0 0 0 0 0 0 0 0 
0 1 1 1 1 2 2 2 2 
1 1 1 1 1 1 1 2 2 
2 2 2 2 1 1 1 1 1 
1 1 2 2 2 2 2 1 1 
1 1 1 2 2 2 2 1 1 
1 1 1 2 2 1 0 0 0 
0 0 0 0 0 0 0 0 0 
0 0 0 0 0 0 0 0 0 
0 0 0 0 0 0 0 0 0 
0 0 0 0 0 0 0 0 0 
0 0 0 0 0 0 0 0 0 
0 1 1 1 1 1 2 2 2 
2 2 2 2 2 2 2 2 2 
2 1 2 2 2 2 2 2 2 
2 2 2 2 1 2 2 2 1 
1 1 1 1 2 2 2 2 2 
1 1 1 1 2 1 1 1 0 
0 0 0 0 0 0 0 0 0 
0 0 0 0 0 0 0 0 0 
0 0 0 0 0 0 0 0 0 
0 0 0 0 0 0 0 0 0 
0 0 0 0 0 0 0 0 0 
0 1 1 1 1 1 1 2 2 
2 2 2 2 2 2 2 2 2 
1 1 1 1 1 2 2 2 2 
2 2 2 1 1 1 1 1 2 
2 2 1 1 1 2 2 2 2 
2 2 2 2 2 2 1 1 1 
1 0 0 0 0 0 0 0 0 
0 0 0 0 0 0 0 0 0 
0 0 0 0 0 0 0 0 0 
0 0 0 0 0 0 0 0 0 
0 0 0 0 0 0 0 0 0 
0 2 2 2 1 1 1 1 2 
2 2 2 2 2 2 2 2 2 
1 1 1 1 1 1 2 2 2 
2 2 2 2 1 1 1 1 1 
2 2 2 2 2 2 2 1 1 
1 1 2 2 2 2 2 1 1 
1 1 1 0 0 0 0 0 0 
0 0 0 0 0 0 0 0 0 
0 0 0 0 0 0 0 0 0 
0 0 0 0 0 0 0 0 0 
0 0 0 0 0 0 0 0 0 
0 1 2 2 2 1 1 1 1 
2 1 1 1 1 2 2 2 2 
2 1 1 1 1 1 1 2 2 
2 2 2 2 2 1 1 1 1 
1 2 2 2 2 2 2 1 1 
1 1 1 2 2 2 2 2 1 
1 1 1 1 1 0 0 0 0 
0 0 0 0 0 0 0 0 0 
0 0 0 0 0 0 0 0 0 
0 0 0 0 0 0 0 0 0 
0 0 0 0 0 0 0 0 0 
0 1 1 2 2 2 2 2 2 
2 2 1 1 1 1 1 2 2 
2 2 1 1 1 1 1 1 2 
1 1 1 1 1 2 1 1 1 
1 1 2 2 2 2 2 2 2 
1 1 1 1 2 2 2 2 2 
1 1 1 1 1 2 2 0 0 
0 0 0 0 0 0 0 0 0 
0 0 0 0 0 0 0 0 0 
0 0 0 0 0 0 0 0 0 
0 0 0 0 0 0 0 0 0 
0 1 1 1 2 2 2 2 2 
2 2 2 1 1 1 1 1 2 
2 2 2 1 1 1 1 2 2 
2 1 1 1 1 1 2 2 1 
1 1 1 2 2 2 2 2 2 
1 1 1 1 1 2 2 2 2 
2 2 2 2 2 2 2 1 1 
0 0 0 0 0 0 0 0 0 
0 0 0 0 0 0 0 0 0 
0 0 0 0 0 0 0 0 0 
0 0 0 0 0 0 0 0 0 
0 1 1 1 1 2 2 2 2 
2 2 2 2 1 1 1 1 1 
2 2 2 2 2 2 2 2 2 
2 2 2 2 1 1 1 1 2 
2 2 2 2 2 1 1 1 1 
2 1 1 1 1 1 2 1 1 
1 1 2 2 2 2 2 2 1 
1 1 0 0 0 0 0 0 0 
0 0 0 0 0 0 0 0 0 
0 0 0 0 0 0 0 0 0 
0 0 0 0 0 0 0 0 0 
0 1 1 1 1 1 2 2 2 
2 1 2 2 2 1 1 1 1 
2 2 2 2 2 2 2 2 2 
2 2 2 2 2 1 1 1 1 
2 2 2 2 2 2 1 1 1 
1 2 2 2 2 2 2 2 1 
1 1 1 2 2 2 2 2 2 
1 1 1 1 0 0 0 0 0 
0 0 0 0 0 0 0 0 0 
0 0 0 0 0 0 0 0 0 
0 0 0 0 0 0 0 0 0 
0 1 1 1 1 1 2 2 1 
1 1 1 2 2 2 1 1 1 
1 2 2 2 2 2 2 2 2 
2 2 2 2 2 2 1 1 1 
1 2 2 2 2 2 2 1 1 
1 1 2 2 2 2 2 1 1 
1 1 1 1 2 2 2 2 2 
2 1 1 1 1 1 0 0 0 
0 0 0 0 0 0 0 0 0 
0 0 0 0 0 0 0 0 0 
0 0 0 0 0 0 0 0 0 
0 1 1 1 1 1 1 2 1 
1 1 1 1 2 2 2 1 1 
2 2 2 2 2 2 2 2 2 
2 2 2 2 2 2 2 2 2 
2 2 2 2 2 2 2 1 1 
1 1 1 2 2 2 2 2 1 
1 1 1 1 1 2 1 1 1 
1 2 1 1 1 1 1 1 0 
0 0 0 0 0 0 0 0 0 
0 0 0 0 0 0 0 0 0 
0 0 0 0 0 0 0 0 0 
0 1 1 2 2 2 2 2 2 
1 1 1 1 1 2 2 2 2 
2 2 2 2 2 2 2 2 2 
2 2 2 2 2 2 2 2 2 
2 2 2 2 2 2 2 2 2 
1 1 1 1 2 2 2 2 2 
1 1 1 1 1 1 2 1 1 
1 1 2 1 1 1 1 1 2 
2 0 0 0 0 0 0 0 0 
0 0 0 0 0 0 0 0 0 
0 0 0 0 0 0 0 0 0 
0 1 1 1 2 2 2 2 2 
2 1 1 1 1 1 2 2 2 
2 2 2 2 2 1 1 1 1 
1 2 2 2 2 2 2 2 2 
2 2 2 2 2 2 2 2 2 
2 1 1 1 1 2 2 2 2 
2 2 2 2 2 2 2 2 1 
1 1 1 1 2 2 2 2 2 
2 1 1 0 0 0 0 0 0 
0 0 0 0 0 0 0 0 0 
0 0 0 0 0 0 0 0 0 
0 1 1 1 1 2 2 2 2 
2 2 1 1 1 1 1 2 2 
2 2 2 2 2 2 1 1 1 
1 1 2 2 2 2 1 1 1 
1 1 1 2 2 2 2 2 2 
2 2 1 1 1 1 2 1 1 
1 1 1 2 2 2 2 2 2 
1 1 1 1 1 2 2 2 2 
2 1 1 1 0 0 0 0 0 
0 0 0 0 0 0 0 0 0 
0 0 0 0 0 0 0 0 0 
0 0 1 1 1 1 2 2 1 
1 1 1 2 2 2 2 2 2 
1 1 1 1 2 2 2 1 1 
1 1 2 2 2 2 2 1 1 
1 1 1 1 2 2 2 2 2 
2 2 2 2 2 2 2 2 1 
1 1 1 1 1 2 2 2 2 
2 1 1 1 1 1 2 2 2 
2 2 1 1 1 0 0 0 0 
0 0 0 0 0 0 0 0 0 
0 0 0 0 0 0 0 0 0 
0 0 0 1 1 1 1 2 2 
1 1 1 1 2 2 2 2 2 
2 1 1 1 1 2 2 2 1 
1 1 1 2 2 2 2 2 1 
1 1 1 1 1 2 2 2 2 
2 2 2 2 2 2 2 2 2 
1 1 1 1 1 1 2 2 2 
2 2 1 1 1 1 1 2 2 
2 2 2 1 1 1 0 0 0 
0 0 0 0 0 0 0 0 0 
0 0 0 0 0 0 0 0 0 
0 0 0 0 1 1 1 1 2 
2 1 1 1 1 2 2 2 2 
2 2 1 1 1 1 1 1 2 
1 1 1 1 2 2 2 2 2 
1 1 1 1 1 1 2 2 2 
1 1 1 1 1 1 2 2 2 
2 1 1 1 1 1 1 2 2 
2 2 2 2 2 2 2 2 2 
2 2 2 2 1 1 1 0 0 
0 0 0 0 0 0 0 0 0 
0 0 0 0 0 0 0 0 0 
0 0 0 0 0 1 2 2 2 
2 2 1 1 1 1 2 2 2 
2 2 2 1 1 1 1 1 1 
2 1 1 1 2 2 2 2 2 
2 2 2 2 1 1 1 2 2 
2 1 1 1 1 1 1 2 2 
2 2 1 1 1 1 2 2 2 
1 1 1 1 1 2 2 2 1 
1 1 1 1 2 1 1 1 0 
0 0 0 0 0 0 0 0 0 
0 0 0 0 0 0 0 0 0 
0 0 0 0 0 0 1 1 1 
1 1 2 1 1 1 1 2 2 
2 2 2 2 1 1 1 1 1 
1 2 2 2 2 2 1 1 1 
1 2 2 2 2 2 2 2 2 
2 2 1 1 1 1 1 1 2 
2 2 2 2 2 1 2 2 2 
2 1 1 1 1 1 2 2 2 
1 1 1 1 1 2 1 1 1 
0 0 0 0 0 0 0 0 0 
0 0 0 0 0 0 0 0 0 
0 0 0 0 0 0 0 1 1 
1 1 1 2 1 1 1 1 2 
1 1 1 1 2 2 2 2 2 
2 2 2 2 2 2 2 1 1 
1 1 2 2 2 2 2 2 2 
2 2 2 1 1 1 1 1 1 
2 2 2 2 2 2 2 2 2 
2 2 1 1 1 1 1 2 2 
2 1 1 1 1 1 2 1 1 
1 0 0 0 0 0 0 0 0 
0 0 0 0 0 0 0 0 0 
0 0 0 0 0 0 0 0 1 
1 1 1 1 2 2 2 2 2 
2 1 1 1 1 2 2 2 2 
2 2 2 2 2 2 2 2 1 
1 1 1 2 2 2 2 2 2 
2 2 2 2 1 1 1 1 2 
2 2 2 2 2 2 2 2 2 
2 2 2 1 1 1 1 1 2 
2 2 1 1 1 1 1 2 1 
1 1 0 0 0 0 0 0 0 
0 0 0 0 0 0 0 0 0 
0 0 0 0 0 0 0 0 0 
1 1 1 1 1 2 2 2 2 
2 2 1 1 1 1 1 2 2 
2 2 2 2 2 2 2 2 1 
1 1 1 1 2 2 2 1 1 
1 2 2 2 2 2 2 2 2 
2 2 1 1 1 2 2 2 2 
2 2 2 2 1 1 1 1 1 
2 2 2 2 1 1 1 1 2 
2 2 2 0 0 0 0 0 0 
0 0 0 0 0 0 0 0 0 
0 0 0 0 0 0 0 0 0 
0 1 1 1 2 2 2 1 1 
2 2 2 1 1 1 1 1 2 
2 2 2 2 1 2 2 2 2 
1 1 1 1 1 2 1 1 1 
1 1 2 2 2 2 1 2 2 
2 2 1 1 1 1 2 2 2 
2 2 2 2 2 2 2 2 2 
2 2 2 2 2 2 2 2 2 
2 2 2 2 0 0 0 0 0 
0 0 0 0 0 0 0 0 0 
0 0 0 0 0 0 0 0 0 
0 0 2 2 2 2 1 1 1 
1 2 2 2 1 1 1 1 1 
2 2 2 1 1 1 2 2 2 
2 2 1 1 1 1 2 1 1 
1 1 1 2 2 2 2 1 2 
2 2 2 1 1 1 1 2 2 
2 2 2 1 1 1 1 2 2 
2 2 1 1 1 1 1 1 2 
2 2 2 2 2 0 0 0 0 
0 0 0 0 0 0 0 0 0 
0 0 0 0 0 0 0 0 0 
0 0 0 2 2 2 2 1 1 
1 1 2 2 2 2 1 1 1 
1 2 2 1 1 1 1 2 2 
2 2 2 2 2 2 2 2 1 
1 1 1 1 2 2 1 1 1 
1 2 2 2 1 1 1 1 2 
2 2 1 1 1 1 1 1 2 
2 2 2 1 1 1 1 1 1 
2 2 2 2 2 2 0 0 0 
0 0 0 0 0 0 0 0 0 
0 0 0 0 0 0 0 0 0 
0 0 0 0 2 2 2 2 1 
1 1 1 2 2 2 2 2 2 
2 2 2 1 1 1 1 1 2 
2 2 2 2 2 2 2 2 2 
2 1 1 1 1 2 2 1 1 
1 1 2 2 2 1 1 1 1 
1 2 2 1 1 1 1 1 1 
2 2 2 2 1 1 1 1 1 
1 2 2 2 1 1 1 0 0 
0 0 0 0 0 0 0 0 0 
0 0 0 0 0 0 0 0 0 
0 0 0 0 0 2 2 2 2 
1 1 1 1 2 1 1 1 1 
2 2 2 2 1 1 1 1 1 
2 2 2 2 2 2 2 2 2 
2 2 1 1 1 1 2 2 1 
1 1 1 2 2 2 1 1 1 
1 1 2 2 1 1 1 1 1 
1 2 2 2 2 1 1 1 1 
1 1 2 1 1 1 1 1 0 
0 0 0 0 0 0 0 0 0 
0 0 0 0 0 0 0 0 0 
0 0 0 0 0 0 2 2 2 
2 1 1 1 1 2 1 1 1 
1 2 2 2 2 1 1 1 1 
1 2 2 2 2 2 2 2 2 
2 2 2 2 2 2 2 2 2 
1 1 1 1 2 2 2 1 1 
2 2 2 2 2 2 2 1 1 
1 1 2 2 2 2 2 1 1 
1 1 2 2 1 1 1 1 1 
0 0 0 0 0 0 0 0 0 
0 0 0 0 0 0 0 0 0 
0 0 0 0 0 0 0 2 2 
2 2 2 2 2 2 2 1 1 
1 1 1 2 2 2 1 1 1 
1 1 2 2 2 2 1 1 2 
2 2 2 2 2 2 2 2 2 
2 1 1 1 1 2 2 2 2 
2 2 2 2 2 2 2 2 2 
2 2 2 2 2 2 2 2 2 
2 2 2 2 2 1 1 1 1 
1 0 0 0 0 0 0 0 0 
0 0 0 0 0 0 0 0 0 
0 0 0 0 0 0 0 0 1 
1 1 1 2 2 2 2 2 1 
1 1 1 1 2 2 2 2 2 
2 2 2 2 2 2 2 1 1 
1 1 1 1 2 2 2 2 2 
2 2 1 1 1 1 2 2 2 
2 2 2 2 2 2 2 1 1 
1 1 1 2 2 2 1 1 1 
1 2 2 2 2 2 1 1 1 
1 1 0 0 0 0 0 0 0 
0 0 0 0 0 0 0 0 0 
0 0 0 0 0 0 0 0 0 
1 1 1 1 2 2 2 2 2 
1 1 1 1 2 2 2 2 1 
1 1 1 2 2 2 2 2 1 
1 1 1 1 1 2 2 2 2 
1 1 2 2 2 2 2 2 2 
2 2 2 1 2 2 2 2 1 
1 1 1 1 2 2 2 1 1 
1 1 2 2 2 2 2 1 1 
1 1 1 0 0 0 0 0 0 
0 0 0 0 0 0 0 0 0 
0 0 0 0 0 0 0 0 0 
0 1 1 1 1 2 2 2 2 
2 2 2 2 2 2 2 2 2 
1 1 1 1 2 2 2 2 2 
1 1 1 1 1 1 1 2 1 
1 1 1 2 2 2 2 2 2 
2 2 2 2 1 1 1 2 2 
1 1 1 1 1 2 2 2 1 
1 1 1 2 2 2 2 2 2 
2 2 2 2 0 0 0 0 0 
0 0 0 0 0 0 0 0 0 
0 0 0 0 0 0 0 0 0 
0 0 1 1 1 1 2 2 2 
2 2 1 1 1 1 1 1 1 
2 1 1 1 1 1 1 2 2 
2 1 1 1 1 1 1 2 2 
1 1 1 1 2 2 2 2 1 
1 1 1 2 1 1 1 1 2 
2 1 1 1 1 1 2 2 2 
1 1 1 1 2 2 2 2 2 
2 2 2 2 2 0 0 0 0 
0 0 0 0 0 0 0 0 0 
0 0 0 0 0 0 0 0 0 
0 0 0 1 1 1 1 2 1 
1 1 2 1 1 1 1 1 1 
1 2 1 1 1 1 1 1 2 
2 2 2 2 2 2 2 2 2 
2 1 1 1 1 2 2 2 2 
1 1 1 1 2 1 1 1 1 
1 1 1 1 1 1 2 2 2 
2 1 1 1 1 2 1 1 1 
1 2 2 2 2 2 0 0 0 
0 0 0 0 0 0 0 0 0 
0 0 0 0 0 0 0 0 0 
0 0 0 0 1 1 1 1 1 
1 1 1 2 1 1 1 1 1 
1 1 2 2 1 1 1 1 1 
2 2 2 2 2 2 2 2 2 
2 2 1 1 1 1 2 2 2 
1 1 1 1 1 2 1 1 1 
1 2 2 2 2 2 2 2 2 
2 2 1 1 1 1 2 1 1 
1 1 2 2 2 2 2 0 0 
0 0 0 0 0 0 0 0 0 
0 0 0 0 0 0 0 0 0 
0 0 0 0 0 2 2 2 2 
1 1 1 1 2 2 2 2 1 
1 2 2 2 2 1 2 2 2 
2 2 2 2 2 2 2 2 2 
2 2 2 1 1 1 1 2 2 
2 1 1 1 1 1 2 1 1 
1 1 2 2 2 2 2 2 1 
1 1 1 1 1 1 1 2 1 
1 1 1 2 2 2 2 1 0 
0 0 0 0 0 0 0 0 0 
0 0 0 0 0 0 0 0 0 
0 0 0 0 0 0 1 1 2 
2 1 1 1 1 2 2 2 2 
2 2 2 2 2 2 2 2 2 
2 2 2 2 2 2 1 1 1 
1 2 2 2 1 1 1 1 2 
2 1 1 1 1 1 1 2 1 
1 1 1 2 2 2 2 2 2 
1 1 1 1 2 2 2 2 2 
1 1 1 1 2 1 1 1 1 
0 0 0 0 0 0 0 0 0 
0 0 0 0 0 0 0 0 0 
0 0 0 0 0 0 0 1 1 
2 2 1 1 1 2 2 1 1 
1 2 2 2 2 1 1 1 1 
1 2 2 2 2 2 2 1 1 
1 1 1 2 2 2 2 2 2 
2 2 2 2 2 2 2 2 2 
2 2 2 2 2 2 2 2 2 
2 1 1 1 1 2 2 2 2 
2 1 1 1 1 2 1 1 1 
1 0 0 0 0 0 0 0 0 
0 0 0 0 0 0 0 0 0 
0 0 0 0 0 0 0 0 1 
1 2 2 1 1 1 2 2 1 
1 1 1 1 2 2 1 1 1 
1 1 2 1 1 1 1 2 1 
1 1 1 1 1 1 2 2 2 
2 2 1 1 1 1 1 1 2 
2 2 2 2 2 1 1 1 1 
1 2 1 1 1 1 2 2 2 
2 2 1 1 1 1 2 1 1 
1 1 0 0 0 0 0 0 0 
0 0 0 0 0 0 0 0 0 
0 0 0 0 0 0 0 0 0 
1 1 2 2 2 2 2 2 2 
1 1 1 1 1 2 2 1 1 
1 1 1 2 1 1 1 1 2 
1 1 1 1 1 1 1 2 2 
2 2 2 1 1 1 1 1 1 
2 2 2 2 2 2 1 1 1 
1 1 2 1 1 1 1 2 2 
2 2 2 2 1 1 1 2 1 
1 1 1 0 0 0 0 0 0 
0 0 0 0 0 0 0 0 0 
0 0 0 0 0 0 0 0 0 
0 1 1 2 2 2 2 2 2 
2 1 1 1 1 1 2 2 1 
1 1 1 1 2 1 1 1 2 
2 2 2 2 1 1 1 1 2 
2 2 2 2 1 1 1 1 1 
1 2 2 2 2 2 2 1 1 
1 1 1 2 1 1 1 1 2 
2 1 1 1 1 2 2 2 2 
1 1 1 1 0 0 0 0 0 
0 0 0 0 0 0 0 0 0 
0 0 0 0 0 0 0 0 0 
0 0 1 1 2 2 1 1 1 
1 2 1 1 1 1 1 1 1 
1 1 1 1 2 2 1 1 1 
2 2 2 2 2 2 2 2 2 
2 2 2 2 2 1 1 1 1 
1 1 2 1 1 1 1 2 1 
1 1 1 1 2 1 1 1 2 
2 1 1 1 1 1 2 2 2 
2 1 1 1 1 0 0 0 0 
0 0 0 0 0 0 0 0 0 
0 0 0 0 0 0 0 0 0 
0 0 0 1 1 2 2 1 1 
1 1 2 2 2 2 2 2 2 
2 2 2 2 2 2 2 1 1 
1 2 2 2 2 2 2 2 2 
2 1 1 1 1 1 2 2 2 
2 2 2 2 1 1 1 1 2 
1 1 1 1 1 2 2 2 2 
2 2 1 1 1 1 1 2 2 
2 2 2 2 2 2 0 0 0 
0 0 0 0 0 0 0 0 0 
0 0 0 0 0 0 0 0 0 
0 0 0 0 1 1 2 2 1 
1 1 1 2 2 2 2 1 1 
1 1 1 2 2 2 2 2 1 
1 1 1 2 2 2 2 2 2 
2 2 1 1 1 1 1 2 2 
2 2 2 2 2 1 1 1 1 
2 2 2 2 2 2 2 1 1 
1 1 2 1 1 1 1 1 2 
2 2 2 1 1 1 1 0 0 
0 0 0 0 0 0 0 0 0 
0 0 0 0 0 0 0 0 0 
0 0 0 0 0 1 1 2 2 
1 1 1 1 2 2 2 2 1 
1 1 1 1 2 2 2 2 2 
1 1 1 1 2 2 2 2 2 
2 2 2 1 1 1 1 1 2 
2 2 2 2 2 2 1 1 1 
1 2 2 2 2 2 2 1 1 
1 1 1 2 1 1 1 1 1 
2 2 2 2 1 1 1 1 0 
0 0 0 0 0 0 0 0 0 
0 0 0 0 0 0 0 0 0 
0 0 0 0 0 0 1 2 2 
2 1 1 1 1 2 2 2 2 
1 1 1 1 1 2 2 2 2 
2 2 2 2 2 2 2 2 2 
2 2 2 2 1 1 1 1 1 
2 2 2 2 2 2 2 1 1 
1 1 2 2 2 2 2 2 1 
1 1 1 1 2 2 2 2 2 
2 2 2 2 2 1 1 1 1 
0 0 0 0 0 0 0 0 0 
0 0 0 0 0 0 0 0 0 
0 0 0 0 0 0 0 1 2 
2 2 1 1 1 1 2 2 2 
2 1 1 1 1 1 2 1 1 
1 1 1 2 2 2 2 2 2 
2 2 2 2 2 1 1 1 1 
1 2 2 1 1 1 1 2 1 
1 1 1 2 2 2 2 2 2 
1 1 1 1 1 2 2 2 2 
2 1 1 1 1 2 1 1 1 
1 0 0 0 0 0 0 0 0 
0 0 0 0 0 0 0 0 0 
0 0 0 0 0 0 0 0 1 
1 1 1 2 2 2 2 2 2 
2 2 1 1 1 1 1 2 1 
1 1 1 1 2 2 2 2 2 
2 2 2 2 2 2 2 2 2 
1 1 2 1 1 1 1 1 1 
2 2 2 2 1 1 1 1 1 
2 1 1 1 1 1 2 2 2 
2 2 1 1 1 1 2 2 1 
1 1 0 0 0 0 0 0 0 
0 0 0 0 0 0 0 0 0 
0 0 0 0 0 0 0 0 0 
1 1 1 1 2 2 2 2 1 
1 1 1 2 2 2 2 2 2 
1 1 1 1 1 1 2 2 2 
2 2 2 1 1 1 1 1 1 
2 2 2 2 1 1 1 1 1 
1 2 2 2 2 1 1 1 1 
1 2 2 2 1 1 1 2 2 
2 2 2 1 1 1 1 2 2 
1 1 1 0 0 0 0 0 0 
0 0 0 0 0 0 0 0 0 
0 0 0 0 0 0 0 0 0 
0 1 1 1 1 2 2 2 2 
1 1 1 1 2 2 2 2 2 
2 1 1 1 1 1 2 2 2 
2 2 2 2 1 1 1 1 1 
1 1 2 2 2 1 1 1 1 
1 1 2 2 2 2 1 1 1 
1 1 2 2 2 2 2 2 2 
2 2 2 2 1 1 1 1 2 
2 2 1 1 0 0 0 0 0 
0 0 0 0 0 0 0 0 0 
0 0 0 0 0 0 0 0 0 
0 0 1 1 1 1 2 2 2 
1 1 1 1 1 2 2 2 2 
2 2 1 1 1 1 1 2 2 
2 2 2 2 2 1 1 1 1 
1 1 1 2 2 2 2 2 2 
2 2 1 1 1 1 2 1 1 
1 1 1 2 2 2 2 2 2 
1 1 1 1 2 1 1 1 1 
2 2 2 2 2 0 0 0 0 
0 0 0 0 0 0 0 0 0 
0 0 0 0 0 0 0 0 0 
0 0 0 1 1 1 1 2 2 
2 1 1 1 1 1 2 2 2 
2 2 2 2 2 2 2 2 2 
2 2 2 2 2 2 1 1 1 
1 1 1 1 2 2 2 2 2 
2 2 2 1 1 1 1 2 1 
1 1 1 1 2 2 2 2 2 
2 1 1 1 1 2 1 1 1 
2 2 2 2 2 2 0 0 0 
0 0 0 0 0 0 0 0 0 
0 0 0 0 0 0 0 0 0 
0 0 0 0 1 1 1 1 2 
2 2 1 1 1 2 2 2 2 
2 2 2 2 2 2 2 1 1 
1 2 2 2 1 1 1 2 2 
2 2 2 2 2 2 1 1 1 
1 1 2 2 1 1 1 1 2 
2 2 2 2 2 1 1 1 1 
2 2 1 1 1 1 2 1 1 
1 2 2 2 2 2 2 0 0 
0 0 0 0 0 0 0 0 0 
0 0 0 0 0 0 0 0 0 
0 0 0 0 0 2 2 2 2 
2 2 2 1 1 1 2 2 1 
1 1 1 1 2 2 2 1 1 
1 1 2 1 1 1 1 1 2 
2 2 2 2 2 2 2 1 1 
1 1 1 1 2 1 1 1 1 
2 2 2 2 2 2 1 1 1 
1 1 2 1 1 1 1 2 2 
2 2 2 1 1 1 1 1 0 
0 0 0 0 0 0 0 0 0 
0 0 0 0 0 0 0 0 0 
0 0 0 0 0 0 1 1 1 
1 1 1 2 2 2 2 2 2 
1 1 1 1 1 2 2 2 1 
1 1 1 2 1 1 1 1 1 
2 1 1 1 1 2 2 2 1 
1 1 1 1 1 2 1 1 1 
1 1 1 1 1 1 2 1 1 
1 1 1 2 1 1 1 1 2 
2 2 2 2 1 1 1 1 1 
0 0 0 0 0 0 0 0 0 
0 0 0 0 0 0 0 0 0 
0 0 0 0 0 0 0 1 1 
1 1 1 1 2 2 2 2 2 
2 1 1 1 1 1 2 2 2 
1 1 1 1 2 1 1 1 1 
1 2 1 1 1 1 2 2 2 
1 1 1 1 1 1 2 1 1 
1 2 1 1 1 1 1 2 1 
1 1 1 1 2 1 1 1 1 
2 2 2 2 2 1 1 1 1 
1 0 0 0 0 0 0 0 0 
0 0 0 0 0 0 0 0 0 
0 0 0 0 0 0 0 0 0 
1 1 1 1 1 2 2 2 2 
2 2 1 1 1 1 1 2 2 
2 1 1 1 1 2 1 1 1 
1 1 2 1 1 1 1 2 2 
2 2 1 1 1 1 1 2 2 
2 2 2 1 1 1 1 1 2 
1 1 1 1 1 2 1 1 1 
2 2 2 2 2 2 1 1 1 
1 0 0 0 0 0 0 0 0 
0 0 0 0 0 0 0 0 0 
0 0 0 0 0 0 0 0 0 
0 0 1 1 1 1 2 2 2 
2 2 2 1 1 1 1 1 2 
2 2 1 1 1 1 2 2 2 
2 2 2 2 1 1 1 1 1 
1 1 1 1 2 2 2 2 1 
1 1 1 2 1 1 1 1 1 
2 2 2 2 2 2 2 2 2 
2 2 2 2 2 2 2 1 1 
1 0 0 0 0 0 0 0 0 
0 0 0 0 0 0 0 0 0 
0 0 0 0 0 0 0 0 0 
0 0 0 0 1 1 1 2 2 
2 2 2 2 1 2 2 2 2 
2 2 2 2 1 1 2 2 2 
2 2 2 2 2 1 1 1 2 
1 1 1 1 1 2 2 2 2 
1 1 1 1 2 1 1 1 1 
2 2 2 2 2 2 2 2 2 
2 2 1 1 1 1 1 2 1 
1 0 0 0 0 0 0 0 0 
0 0 0 0 0 0 0 0 0 
0 0 0 0 0 0 0 0 0 
0 0 0 0 0 0 1 1 2 
2 2 2 2 2 2 2 2 2 
2 1 1 1 2 2 2 2 2 
2 2 2 2 2 2 1 1 1 
2 1 1 1 1 1 2 2 2 
2 1 1 1 1 2 2 2 2 
2 1 1 1 1 2 2 2 2 
2 2 2 1 1 1 1 1 2 
1 0 0 0 0 0 0 0 0 
0 0 0 0 0 0 0 0 0 
0 0 0 0 0 0 0 0 0 
0 0 0 0 0 0 0 0 1 
2 2 2 2 2 2 2 2 2 
2 2 1 1 1 2 2 1 1 
1 1 2 1 1 1 1 2 2 
2 2 1 1 1 1 1 2 2 
2 2 1 1 1 1 2 2 2 
2 2 1 1 1 1 1 1 1 
1 1 1 2 2 1 1 1 1 
2 0 0 0 0 0 0 0 0 
0 0 0 0 0 0 0 0 0 
0 0 0 0 0 0 0 0 0 
0 0 0 0 0 0 0 0 0 
0 2 2 2 2 2 2 2 2 
2 2 2 1 1 1 2 2 1 
1 1 1 2 1 1 1 1 2 
2 2 2 2 2 1 1 1 2 
2 2 2 1 1 1 1 2 2 
2 2 2 1 1 1 1 2 1 
1 1 1 1 2 2 1 1 1 
1 0 0 0 0 0 0 0 0 
0 0 0 0 0 0 0 0 0 
0 0 0 0 0 0 0 0 0 
0 0 0 0 0 0 0 0 0 
0 0 0 2 2 2 1 1 2 
2 2 2 1 1 1 1 2 2 
1 1 1 1 2 1 1 1 1 
2 2 2 2 2 2 1 2 2 
2 2 2 2 2 1 1 1 2 
2 2 2 2 1 1 1 1 2 
1 1 1 1 1 2 2 1 1 
1 0 0 0 0 0 0 0 0 
0 0 0 0 0 0 0 0 0 
0 0 0 0 0 0 0 0 0 
0 0 0 0 0 0 0 0 0 
0 0 0 0 0 2 1 1 1 
2 2 2 2 1 1 1 1 2 
2 1 1 1 1 2 1 1 1 
1 2 2 1 1 1 1 1 1 
2 1 1 1 1 1 2 2 2 
1 1 1 1 1 1 1 1 1 
2 1 1 1 1 1 2 2 1 
1 0 0 0 0 0 0 0 0 
0 0 0 0 0 0 0 0 0 
0 0 0 0 0 0 0 0 0 
0 0 0 0 0 0 0 0 0 
0 0 0 0 0 0 0 1 1 
1 1 1 1 2 1 1 1 1 
2 2 1 1 1 1 2 1 1 
1 1 2 2 1 1 1 1 1 
1 2 1 1 1 1 1 2 2 
2 1 1 1 1 1 2 2 2 
2 2 1 1 1 2 2 2 2 
1 0 0 0 0 0 0 0 0 
0 0 0 0 0 0 0 0 0 
0 0 0 0 0 0 0 0 0 
0 0 0 0 0 0 0 0 0 
0 0 0 0 0 0 0 0 0 
1 1 1 1 1 2 1 1 1 
1 2 2 1 1 1 1 2 2 
1 1 1 2 2 1 1 1 1 
1 1 2 1 1 1 1 1 2 
2 2 1 1 1 1 1 2 2 
2 2 2 2 2 2 2 2 2 
2 0 0 0 0 0 0 0 0 
0 0 0 0 0 0 0 0 0 
0 0 0 0 0 0 0 0 0 
0 0 0 0 0 0 0 0 0 
0 0 0 0 0 0 0 0 0 
0 0 1 1 1 1 2 2 2 
2 2 2 2 2 1 1 1 2 
2 2 2 2 2 2 1 1 1 
1 1 1 2 1 1 1 1 1 
2 2 2 1 1 1 1 1 2 
2 2 2 2 2 2 2 2 2 
2 0 0 0 0 0 0 0 0 
0 0 0 0 0 0 0 0 0 
0 0 0 0 0 0 0 0 0 
0 0 0 0 0 0 0 0 0 
0 0 0 0 0 0 0 0 0 
0 0 0 0 1 1 1 2 2 
2 2 2 2 2 2 2 2 2 
2 2 2 2 1 1 1 2 2 
2 2 2 2 2 1 1 1 1 
1 2 2 2 2 1 1 1 1 
2 2 2 1 1 1 1 1 1 
1 0 0 0 0 0 0 0 0 
0 0 0 0 0 0 0 0 0 
0 0 0 0 0 0 0 0 0 
0 0 0 0 0 0 0 0 0 
0 0 0 0 0 0 0 0 0 
0 0 0 0 0 0 1 2 2 
2 2 2 1 1 1 1 1 1 
1 2 2 2 1 1 1 1 2 
2 2 2 2 2 2 2 2 2 
2 2 2 2 2 2 2 2 2 
2 2 2 2 1 1 1 1 1 
1 0 0 0 0 0 0 0 0 
0 0 0 0 0 0 0 0 0 
0 0 0 0 0 0 0 0 0 
0 0 0 0 0 0 0 0 0 
0 0 0 0 0 0 0 0 0 
0 0 0 0 0 0 0 0 2 
2 2 2 2 1 1 1 1 1 
1 1 2 2 2 1 1 1 1 
1 2 2 2 1 1 1 1 1 
1 1 1 2 2 2 1 1 1 
1 1 1 1 2 1 1 1 1 
1 0 0 0 0 0 0 0 0 
0 0 0 0 0 0 0 0 0 
0 0 0 0 0 0 0 0 0 
0 0 0 0 0 0 0 0 0 
0 0 0 0 0 0 0 0 0 
0 0 0 0 0 0 0 0 0 
0 2 2 2 2 1 1 1 1 
1 1 1 2 2 2 1 1 1 
1 1 1 2 2 1 1 1 1 
1 1 1 1 2 2 1 1 1 
1 1 1 1 1 2 1 1 1 
1 0 0 0 0 0 0 0 0 
0 0 0 0 0 0 0 0 0 
0 0 0 0 0 0 0 0 0 
0 0 0 0 0 0 0 0 0 
0 0 0 0 0 0 0 0 0 
0 0 0 0 0 0 0 0 0 
0 0 0 2 2 2 1 1 1 
1 1 1 1 2 2 2 1 1 
1 1 1 1 2 2 1 1 1 
1 1 1 1 1 1 1 1 1 
1 1 1 1 1 1 2 1 1 
1 0 0 0 0 0 0 0 0 
0 0 0 0 0 0 0 0 0 
0 0 0 0 0 0 0 0 0 
0 0 0 0 0 0 0 0 0 
0 0 0 0 0 0 0 0 0 
0 0 0 0 0 0 0 0 0 
0 0 0 0 0 0 0 0 0 
0 0 0 0 0 0 0 0 0 
0 0 0 0 0 0 0 0 0 
0 0 0 0 0 0 0 0 0 
0 0 0 0 0 0 0 0 0 
0 0 0 0 0 0 0 0 0 
0 0 0 0 0 0 0 0 0 
0 0 0 0 0 0 0 0 0 
0 0 0 0 0 0 0 0 0 
0 0 0 0 0 0 0 0 0 
0 0 0 0 0 0 0 0 0 
0 0 0 0 0 0 0 0 0 
0 0 0 0 0 0 0 0 0 
0 0 0 0 0 0 0 0 0 
0 0 0 0 0 0 0 0 0 
0 0 0 0 0 0 0 0 0 
0 0 0 0 0 0 0 0 0 
0 0 0 0 0 0 0 0 0 
0 0 0 0 0 0 0 0 0 
0 0 0 0 0 0 0 0 0 
0 0 0 0 0 0 0 0 0 
0 0 0 0 0 0 0 0 0 
0 0 0 0 0 0 0 0 0 
0 0 0 0 0 0 0 0 0 
0 0 0 0 0 0 0 0 0 
0 0 0 0 0 0 0 0 0 
0 0 0 0 0 0 0 0 0 
0 0 0 0 0 0 0 0 0 
0 0 0 0 0 0 0 0 0 
0 0 0 0 0 0 0 0 0 
0 0 0 0 0 0 0 0 0 
0 0 0 0 0 0 0 0 0 
0 0 0 0 0 0 0 0 0 
0 0 0 0 0 0 0 0 0 
0 0 0 0 0 0 0 0 0 
0 0 0 0 0 0 0 0 0 
0 0 0 0 0 0 0 0 0 
0 0 0 0 0 0 0 0 0 
0 0 0 0 0 0 0 0 0 
0 0 0 0 0 0 0 0 0 
0 0 0 0 0 0 0 0 0 
0 0 0 0 0 0 0 0 0 
0 0 0 0 0 0 0 0 0 
0 0 0 0 0 0 0 0 0 
0 0 0 0 0 0 0 0 0 
0 0 0 0 0 0 0 0 0 
0 0 0 0 0 0 0 0 0 
0 0 0 0 0 0 0 0 0 
0 0 0 0 0 0 0 0 0 
0 0 0 0 0 0 0 0 0 
0 0 0 0 0 0 0 0 0 
0 0 0 0 0 0 0 0 0 
0 0 0 0 0 0 0 0 0 
0 0 0 0 0 0 0 0 0 
0 0 0 0 0 0 0 0 0 
0 0 0 0 0 0 0 0 0 
0 0 0 0 0 0 0 0 0 
0 0 0 0 0 0 0 0 0 
0 0 0 0 0 0 0 0 0 
0 0 0 0 0 0 0 0 0 
0 0 0 0 0 0 0 0 0 
0 0 0 0 0 0 0 0 0 
0 0 0 0 0 0 0 0 0 
0 0 0 0 0 0 0 0 0 
0 0 0 0 0 0 0 0 0 
0 0 0 0 0 0 0 0 0 
0 0 0 0 0 0 0 0 0 
0 0 0 0 0 0 0 0 0 
0 0 0 0 0 0 0 0 0 
0 0 0 0 0 0 0 0 0 
0 0 0 0 0 0 0 0 0 
0 0 0 0 0 0 0 0 0 
0 0 0 0 0 0 0 0 0 
0 0 0 0 0 0 0 0 0 
0 0 0 0 0 0 0 0 0 
0 0 0 0 0 0 0 0 0 
0 0 0 0 0 0 0 0 0 
0 0 0 0 0 0 0 0 0 
0 0 0 0 0 0 0 0 0 
0 0 0 0 0 0 0 0 0 
0 0 0 0 0 0 0 0 0 
0 0 0 0 0 0 0 0 0 
0 0 0 0 0 0 0 0 0 
0 0 0 0 0 0 0 0 0 
0 0 0 0 0 0 0 0 0 
0 0 0 0 0 0 0 0 0 
0 0 0 0 0 0 0 0 0 
0 0 0 0 0 0 0 0 0 
0 0 0 0 0 0 0 0 0 
0 0 0 0 0 0 0 0 0 
0 0 0 0 0 0 0 0 0 
0 0 0 0 0 0 0 0 0 
0 0 0 0 0 0 0 0 0 
0 0 0 0 0 0 0 0 0 
0 0 0 0 0 0 0 0 0 
0 0 0 0 0 0 0 0 0 
0 0 0 0 0 0 0 0 0 
0 0 0 0 0 0 0 0 0 
0 0 0 0 0 0 0 0 0 
0 0 0 0 0 0 0 0 0 
0 0 0 0 0 0 0 0 0 
0 0 0 0 0 0 0 0 0 
0 0 0 0 0 0 0 0 0 
0 0 0 0 0 0 0 0 0 
0 0 0 0 0 0 0 0 0 
0 0 0 0 0 0 0 0 0 
0 0 0 0 0 0 0 0 0 
0 0 0 0 0 0 0 0 0 
0 
CellId 1 10000 long
0 0 0 0 0 0 0 0 0 
0 0 0 0 0 0 0 0 0 
0 0 0 0 0 0 0 0 0 
0 0 0 0 0 0 0 0 0 
0 0 0 0 0 0 0 0 0 
0 0 0 0 0 0 0 0 0 
0 0 0 0 0 0 0 0 0 
0 0 0 0 0 0 0 0 0 
0 0 0 0 0 0 0 0 0 
0 0 0 0 0 0 0 0 0 
0 0 0 0 0 0 0 0 0 
0 0 0 0 0 0 0 0 0 
0 0 0 0 0 0 0 0 0 
0 0 0 0 0 0 0 0 0 
0 0 0 0 0 0 0 0 0 
0 0 0 0 0 0 0 0 0 
0 0 0 0 0 0 0 0 0 
0 0 0 0 0 0 0 0 0 
0 0 0 0 0 0 0 0 0 
0 0 0 0 0 0 0 0 0 
0 0 0 0 0 0 0 0 0 
0 0 0 0 0 0 0 0 0 
0 0 0 0 0 0 0 0 0 
0 0 0 0 0 0 0 0 0 
0 0 0 0 0 0 0 0 0 
0 0 0 0 0 0 0 0 0 
0 0 0 0 0 0 0 0 0 
0 0 0 0 0 0 0 0 0 
0 0 0 0 0 0 0 0 0 
0 0 0 0 0 0 0 0 0 
0 0 0 0 0 0 0 0 0 
0 0 0 0 0 0 0 0 0 
0 0 0 0 0 0 0 0 0 
0 0 0 0 0 0 0 0 0 
0 0 0 0 0 0 0 0 0 
0 0 0 0 0 0 0 0 0 
0 0 0 0 0 0 0 0 0 
0 0 0 0 0 0 0 0 0 
0 0 0 0 0 0 0 0 0 
0 0 0 0 0 0 0 0 0 
0 0 0 0 0 0 0 0 0 
0 0 0 0 0 0 0 0 0 
0 0 0 0 0 0 0 0 0 
0 0 0 0 0 0 0 0 0 
0 0 0 0 0 0 0 0 0 
0 0 0 0 0 0 0 0 0 
0 0 0 0 0 0 0 0 0 
0 0 0 0 0 0 0 0 0 
0 0 0 0 0 0 0 0 0 
0 0 0 0 0 0 0 0 0 
0 0 0 0 0 0 0 0 0 
0 0 0 0 0 0 0 0 0 
0 0 0 0 0 0 0 0 0 
0 0 0 0 0 0 0 0 0 
0 0 0 0 0 0 0 0 0 
0 0 0 0 0 0 0 0 0 
0 0 0 0 0 0 0 0 0 
0 0 0 0 0 0 0 0 0 
0 0 0 0 0 0 0 0 0 
0 0 0 0 0 0 0 0 0 
0 0 0 0 0 0 0 0 0 
0 0 0 0 0 0 0 0 0 
0 0 0 0 0 0 0 0 0 
0 0 0 0 0 0 0 0 0 
0 0 0 0 0 0 0 0 0 
0 0 0 0 0 0 0 0 0 
0 0 0 0 0 0 0 0 0 
0 0 0 0 0 0 0 0 0 
0 0 0 0 0 0 0 0 0 
0 0 0 0 0 0 0 0 0 
0 0 0 0 0 0 0 0 0 
0 0 0 0 0 0 0 0 0 
0 0 0 0 0 0 0 0 0 
0 0 0 0 0 0 0 0 0 
0 0 0 0 0 0 0 0 0 
0 0 0 0 0 0 0 0 0 
0 0 0 0 0 0 0 0 0 
0 0 0 0 0 0 0 0 0 
0 0 0 0 0 0 0 0 0 
0 0 0 0 0 0 0 0 0 
0 0 0 0 0 0 0 0 0 
0 0 0 0 0 0 0 0 0 
0 0 0 0 0 0 0 0 0 
0 0 0 0 0 0 0 0 0 
0 0 0 0 0 0 0 0 0 
0 0 0 0 0 0 0 0 0 
0 0 0 0 0 0 0 0 0 
0 0 0 0 0 0 0 0 0 
0 0 0 0 0 0 0 0 0 
0 0 0 0 0 0 0 0 0 
0 0 0 0 0 0 0 0 0 
0 0 0 0 0 0 0 0 0 
0 0 0 0 0 0 0 0 0 
0 0 0 0 0 0 0 0 0 
0 0 0 0 0 0 0 0 0 
0 0 0 0 0 0 0 0 0 
0 0 0 0 0 0 0 0 0 
0 0 0 0 0 0 0 0 0 
0 0 0 0 0 0 0 0 0 
0 0 0 0 0 0 0 0 0 
0 0 0 0 0 0 0 0 0 
0 0 0 0 0 0 0 0 0 
0 0 0 0 0 0 0 0 0 
0 0 0 0 0 0 0 0 0 
0 0 0 0 0 0 0 0 0 
0 0 0 0 0 0 0 0 0 
0 0 0 0 0 0 0 0 0 
0 0 0 0 0 0 0 0 0 
0 0 0 0 0 0 0 0 0 
0 0 0 0 0 0 0 0 0 
0 0 0 0 0 0 0 0 0 
0 0 0 0 0 0 0 0 0 
0 0 0 0 0 0 0 0 0 
0 0 0 0 0 0 0 0 0 
0 0 0 0 0 0 0 0 0 
0 0 0 0 0 0 0 0 0 
0 0 0 0 0 0 0 0 0 
0 0 0 0 0 0 0 0 0 
0 0 0 0 0 0 0 0 0 
0 0 0 0 0 0 0 0 0 
0 0 0 0 0 0 0 0 0 
0 0 0 0 0 0 0 0 0 
0 0 0 0 0 0 0 0 0 
0 0 0 0 0 0 0 0 0 
0 0 0 0 0 0 0 0 0 
0 0 0 0 0 0 0 0 0 
0 0 0 0 0 0 0 0 0 
0 0 0 0 0 0 0 0 0 
0 0 0 0 0 0 0 0 0 
0 0 0 0 0 0 0 0 0 
0 0 0 0 0 0 0 0 0 
0 0 0 0 0 0 0 0 0 
0 0 0 0 0 0 0 0 0 
0 0 0 0 0 0 0 0 0 
0 0 0 0 0 0 0 0 0 
0 0 0 0 0 0 0 0 0 
0 0 0 0 0 0 0 0 0 
0 0 0 0 0 0 0 0 0 
0 0 0 0 0 0 0 0 0 
0 0 0 0 0 0 0 0 0 
0 0 0 0 0 0 0 0 0 
0 0 0 0 0 0 0 0 0 
0 0 0 0 0 0 0 0 0 
0 0 0 0 0 0 0 0 0 
0 0 0 0 0 0 0 0 0 
0 0 0 0 0 0 0 0 0 
0 0 0 0 0 0 0 0 0 
0 0 0 0 0 0 0 0 0 
0 0 0 0 0 0 0 0 0 
0 0 0 0 0 0 0 0 0 
0 0 0 0 0 0 0 0 0 
0 0 0 0 0 0 0 0 0 
0 0 0 0 0 0 0 0 0 
0 0 0 0 0 0 0 0 0 
0 0 0 0 0 0 0 0 0 
0 0 0 0 0 0 0 0 0 
0 0 0 0 0 0 0 0 0 
0 0 0 0 0 0 0 0 0 
0 0 0 0 0 0 0 0 0 
0 0 0 0 0 0 0 0 0 
0 0 0 0 0 0 0 0 0 
0 0 0 0 0 0 0 0 0 
0 0 0 0 0 0 0 0 0 
0 0 0 0 0 0 0 0 0 
0 0 0 0 0 0 0 0 0 
0 0 0 0 0 0 0 0 0 
0 0 0 0 0 0 0 0 0 
0 0 0 0 0 0 0 0 0 
0 0 0 0 0 0 0 0 0 
0 0 0 0 0 0 0 0 0 
0 9 9 9 9 9 1 1 1 
1 1 1 1 2 2 2 2 2 
2 4 4 4 4 4 4 4 3 
3 3 3 3 5 5 5 5 5 
6 6 6 6 7 7 7 7 7 
0 0 0 0 0 0 0 0 0 
0 0 0 0 0 0 0 0 0 
0 0 0 0 0 0 0 0 0 
0 0 0 0 0 0 0 0 0 
0 0 0 0 0 0 0 0 0 
0 0 0 0 0 0 0 0 0 
0 8 9 9 9 9 9 1 1 
1 1 1 1 1 2 2 2 2 
2 2 4 4 4 4 4 4 4 
3 3 3 3 3 5 5 5 5 
5 6 6 6 6 7 7 7 7 
7 7 0 0 0 0 0 0 0 
0 0 0 0 0 0 0 0 0 
0 0 0 0 0 0 0 0 0 
0 0 0 0 0 0 0 0 0 
0 0 0 0 0 0 0 0 0 
0 0 0 0 0 0 0 0 0 
0 8 8 8 9 9 9 9 1 
1 1 1 1 1 1 2 2 2 
2 2 2 4 4 4 4 4 4 
4 3 3 3 3 3 5 5 5 
5 5 6 6 6 6 7 7 7 
7 7 7 17 0 0 0 0 0 
0 0 0 0 0 0 0 0 0 
0 0 0 0 0 0 0 0 0 
0 0 0 0 0 0 0 0 0 
0 0 0 0 0 0 0 0 0 
0 0 0 0 0 0 0 0 0 
0 8 8 8 8 9 9 9 9 
1 1 1 1 1 1 1 2 2 
2 2 2 2 4 4 4 4 4 
4 4 3 3 3 3 3 5 5 
5 5 5 6 6 6 6 7 7 
7 7 7 17 17 18 0 0 0 
0 0 0 0 0 0 0 0 0 
0 0 0 0 0 0 0 0 0 
0 0 0 0 0 0 0 0 0 
0 0 0 0 0 0 0 0 0 
0 0 0 0 0 0 0 0 0 
0 8 8 8 8 8 9 9 9 
10 10 10 10 10 10 10 10 2 
2 11 2 2 2 12 12 12 12 
12 12 3 3 14 3 3 3 5 
5 5 5 5 6 6 6 6 6 
7 7 7 7 17 18 18 18 0 
0 0 0 0 0 0 0 0 0 
0 0 0 0 0 0 0 0 0 
0 0 0 0 0 0 0 0 0 
0 0 0 0 0 0 0 0 0 
0 0 0 0 0 0 0 0 0 
0 8 8 8 8 8 8 9 9 
9 10 10 10 10 10 10 10 10 
11 11 11 11 11 12 12 12 12 
12 12 12 14 14 14 14 14 15 
15 15 5 5 5 6 6 6 6 
6 17 17 17 17 17 18 18 18 
18 0 0 0 0 0 0 0 0 
0 0 0 0 0 0 0 0 0 
0 0 0 0 0 0 0 0 0 
0 0 0 0 0 0 0 0 0 
0 0 0 0 0 0 0 0 0 
0 21 21 21 8 8 8 8 9 
9 9 10 10 10 10 10 10 10 
11 11 11 11 11 11 12 12 12 
12 12 12 12 14 14 14 14 14 
15 15 15 15 15 15 6 16 16 
16 16 17 17 17 17 17 18 18 
18 18 18 0 0 0 0 0 0 
0 0 0 0 0 0 0 0 0 
0 0 0 0 0 0 0 0 0 
0 0 0 0 0 0 0 0 0 
0 0 0 0 0 0 0 0 0 
0 19 21 21 21 8 8 8 8 
22 20 20 20 20 10 10 10 10 
10 11 11 11 11 11 11 12 12 
12 12 12 12 12 14 14 14 14 
14 15 15 15 15 15 15 16 16 
16 16 16 17 17 17 17 17 18 
18 18 18 18 18 0 0 0 0 
0 0 0 0 0 0 0 0 0 
0 0 0 0 0 0 0 0 0 
0 0 0 0 0 0 0 0 0 
0 0 0 0 0 0 0 0 0 
0 19 19 21 21 21 21 21 22 
22 22 20 20 20 20 20 10 23 
23 23 11 11 11 11 11 11 12 
13 13 13 13 13 26 14 14 14 
14 14 15 15 15 15 15 15 15 
16 16 16 16 17 17 17 17 17 
18 18 18 18 18 43 43 0 0 
0 0 0 0 0 0 0 0 0 
0 0 0 0 0 0 0 0 0 
0 0 0 0 0 0 0 0 0 
0 0 0 0 0 0 0 0 0 
0 19 19 19 21 21 21 21 21 
22 22 22 20 20 20 20 20 23 
23 23 23 11 11 11 11 36 36 
24 13 13 13 13 13 26 26 14 
14 14 14 15 15 15 15 15 15 
16 16 16 16 16 17 17 17 17 
17 43 43 43 43 43 43 31 31 
0 0 0 0 0 0 0 0 0 
0 0 0 0 0 0 0 0 0 
0 0 0 0 0 0 0 0 0 
0 0 0 0 0 0 0 0 0 
0 19 19 19 19 21 21 21 21 
21 22 22 22 20 20 20 20 20 
23 23 23 23 36 36 36 36 36 
24 24 24 24 13 13 13 13 26 
26 26 26 26 26 27 27 27 27 
15 16 16 16 16 16 28 29 29 
29 29 43 43 43 43 43 43 31 
31 31 0 0 0 0 0 0 0 
0 0 0 0 0 0 0 0 0 
0 0 0 0 0 0 0 0 0 
0 0 0 0 0 0 0 0 0 
0 19 19 19 19 19 21 21 21 
21 33 22 22 22 20 20 20 20 
23 23 23 23 23 36 36 36 36 
36 24 24 24 24 13 13 13 13 
26 26 26 26 26 26 27 27 27 
27 28 28 28 28 28 28 28 29 
29 29 29 43 43 43 43 43 43 
31 31 31 31 0 0 0 0 0 
0 0 0 0 0 0 0 0 0 
0 0 0 0 0 0 0 0 0 
0 0 0 0 0 0 0 0 0 
0 19 19 19 19 19 21 21 33 
33 33 33 22 22 22 20 20 20 
20 23 23 23 23 23 36 36 36 
36 36 24 24 24 24 13 13 13 
13 26 26 26 26 26 26 27 27 
27 27 28 28 28 28 28 29 29 
29 29 29 29 43 43 43 43 43 
43 31 31 31 31 31 0 0 0 
0 0 0 0 0 0 0 0 0 
0 0 0 0 0 0 0 0 0 
0 0 0 0 0 0 0 0 0 
0 32 19 19 19 19 19 21 33 
33 33 33 33 22 22 22 20 20 
35 35 23 23 23 23 23 36 36 
36 36 24 24 24 24 24 25 25 
25 25 26 26 26 26 26 27 27 
27 27 27 28 28 28 28 28 29 
29 29 29 29 29 42 30 30 30 
30 43 31 31 31 31 31 31 0 
0 0 0 0 0 0 0 0 0 
0 0 0 0 0 0 0 0 0 
0 0 0 0 0 0 0 0 0 
0 32 32 46 46 46 46 46 46 
33 33 33 33 33 22 22 22 35 
35 35 35 35 23 23 23 23 36 
36 36 36 24 24 24 24 24 25 
25 25 25 25 39 39 39 39 39 
27 27 27 27 28 28 28 28 28 
29 29 29 29 29 29 42 30 30 
30 30 43 31 31 31 31 31 44 
44 0 0 0 0 0 0 0 0 
0 0 0 0 0 0 0 0 0 
0 0 0 0 0 0 0 0 0 
0 32 32 32 46 46 46 46 46 
46 33 33 33 33 33 22 22 22 
35 35 35 35 35 50 50 50 50 
50 37 37 37 37 24 24 24 24 
25 25 25 25 25 39 39 39 39 
39 27 27 27 27 28 28 28 28 
28 28 42 42 42 42 42 42 30 
30 30 30 30 44 44 44 44 44 
44 59 59 0 0 0 0 0 0 
0 0 0 0 0 0 0 0 0 
0 0 0 0 0 0 0 0 0 
0 32 32 32 32 46 46 46 46 
46 46 33 33 33 33 33 22 22 
22 35 35 35 35 35 50 50 50 
50 50 37 37 37 37 38 38 38 
38 38 38 25 25 25 39 39 39 
39 39 27 27 27 27 54 41 41 
41 41 41 42 42 42 42 42 42 
30 30 30 30 30 44 44 44 44 
44 59 59 59 0 0 0 0 0 
0 0 0 0 0 0 0 0 0 
0 0 0 0 0 0 0 0 0 
0 0 32 32 32 32 46 46 47 
47 47 47 34 34 34 34 34 34 
48 48 48 48 35 35 35 50 50 
50 50 37 37 37 37 37 38 38 
38 38 38 38 25 25 25 39 39 
39 39 39 39 54 54 54 54 41 
41 41 41 41 41 42 42 42 42 
42 30 30 30 30 30 44 44 44 
44 44 59 59 59 0 0 0 0 
0 0 0 0 0 0 0 0 0 
0 0 0 0 0 0 0 0 0 
0 0 0 32 32 32 32 46 46 
47 47 47 47 34 34 34 34 34 
34 48 48 48 48 35 35 35 50 
50 50 50 37 37 37 37 37 38 
38 38 38 38 38 25 25 25 39 
39 39 39 39 39 54 54 54 54 
41 41 41 41 41 41 42 42 42 
42 42 30 30 30 30 30 44 44 
44 44 44 59 59 59 0 0 0 
0 0 0 0 0 0 0 0 0 
0 0 0 0 0 0 0 0 0 
0 0 0 0 32 32 32 32 46 
46 47 47 47 47 34 34 34 34 
34 34 48 48 48 48 48 48 35 
50 50 50 50 37 37 37 37 37 
38 38 38 38 38 38 25 25 25 
40 40 40 40 40 40 54 54 54 
54 41 41 41 41 41 41 42 42 
42 42 42 73 73 73 73 73 44 
44 44 44 44 59 59 59 0 0 
0 0 0 0 0 0 0 0 0 
0 0 0 0 0 0 0 0 0 
0 0 0 0 0 45 46 46 46 
46 46 47 47 47 47 34 34 34 
34 34 34 48 48 48 48 48 48 
51 50 50 50 51 37 37 37 37 
52 52 52 52 38 38 38 25 25 
25 40 40 40 40 40 40 54 54 
54 54 41 41 41 41 56 56 56 
57 57 57 57 57 73 73 73 58 
58 58 58 58 44 59 59 59 0 
0 0 0 0 0 0 0 0 0 
0 0 0 0 0 0 0 0 0 